# LAMMPS data file

3 atoms
2 atom types

0.0 4.190000 xlo xhi
0.0 4.190000 ylo yhi
0.0 29.930000 zlo zhi

Atoms

1 1 0.000000 0.000000 0.000000
2 1 0.666667 0.333333 0.731768
3 1 0.333333 0.666667 0.882382
