ITEM: TIMESTEP
0
ITEM: NUMBER OF ATOMS
16800
ITEM: BOX BOUNDS pp pp pp
0.0000000000000000e+00 2.0000000000000000e+02
0.0000000000000000e+00 2.0000000000000000e+02
0.0000000000000000e+00 2.0000000000000000e+02
ITEM: ATOMS id type xs ys zs
3583 1 0.102846 0.00191576 0.00511637
2220 1 0.411139 0.0109463 0.00270365
14367 1 0.459463 0.000956595 0.00823166
15958 1 0.49938 0.0246334 0.0116575
3007 1 0.796289 0.0192404 0.00408716
1034 1 0.937848 0.0144074 0.00493037
15120 1 0.264104 0.0322469 0.00515608
6709 1 0.287264 0.0330904 0.00535915
14431 1 0.716598 0.030111 0.0105708
15132 1 0.897079 0.027797 0.00112017
1727 1 0.0886233 0.0489622 0.0078397
6822 1 0.315309 0.0444807 0.00104919
15913 1 0.496859 0.0608148 0.00232317
13700 1 0.747554 0.0584434 0.00032061
3055 1 0.776311 0.0636291 0.00446475
1912 1 0.981172 0.0531939 0.00417598
82 1 0.369738 0.0654801 0.00636352
6349 1 0.427042 0.0687505 0.00652353
806 1 0.63209 0.0753211 0.00258082
2443 1 0.947488 0.0717701 0.00938691
9817 1 0.142658 0.0907326 0.000691365
12330 1 0.60255 0.0846267 0.00594934
11136 1 0.664178 0.0890796 0.00507752
10410 1 0.22624 0.115688 0.00362269
3762 1 0.357435 0.116597 0.00476289
13947 1 0.201433 0.117751 0.00981604
9157 1 0.448162 0.120994 0.0129915
12007 1 0.556119 0.129724 0.00683003
9962 1 0.57803 0.127939 0.00457013
14400 1 0.176907 0.14157 0.0064745
16102 1 0.369881 0.137665 0.00716315
2821 1 0.835812 0.150024 0.0127935
10927 1 0.851263 0.167248 0.0127854
13647 1 0.853542 0.160517 0.0115147
4390 1 0.0113272 0.171229 0.00992268
14225 1 0.124449 0.172406 0.00356266
2409 1 0.619327 0.173233 0.0119241
11365 1 0.717531 0.176464 0.0104776
15679 1 0.742026 0.171955 0.0125117
1930 1 0.17592 0.194546 0.00122459
9206 1 0.383353 0.206942 0.00725957
1920 1 0.454595 0.205895 0.00958933
15010 1 0.651973 0.205244 0.00194487
7394 1 0.207588 0.208899 0.00420317
12901 1 0.383084 0.211124 0.00648923
8127 1 0.417415 0.208572 0.00723885
1268 1 0.555938 0.218414 0.00560363
8200 1 0.993865 0.21785 0.00865247
13664 1 0.0184676 0.228795 0.00420592
15504 1 0.741098 0.24209 0.00751292
11781 1 0.758419 0.244614 0.0106092
3467 1 0.179142 0.254308 0.00544695
5810 1 0.445431 0.258882 0.00368703
2027 1 0.574326 0.258244 0.0124196
11225 1 0.686392 0.251441 0.00687332
9021 1 0.946896 0.251523 0.00387559
13278 1 0.989724 0.255875 0.0120313
12332 1 0.171173 0.261814 0.0104747
2945 1 0.549976 0.275439 0.0127293
15725 1 0.959407 0.281784 0.012485
6575 1 0.117134 0.294037 0.0111585
396 1 0.0463388 0.308565 0.0121564
7236 1 0.0635341 0.322543 0.0014293
7351 1 0.705922 0.316626 0.00660716
8554 1 0.421514 0.325845 0.0051357
7554 1 0.439375 0.343221 0.0012321
12250 1 0.559394 0.355739 0.012519
3128 1 0.666381 0.358189 0.0063118
6994 1 0.907493 0.354825 0.00176151
3673 1 0.279072 0.365107 0.00615134
9241 1 0.297108 0.373582 0.00842539
7425 1 0.777287 0.367098 0.00200909
15666 1 0.819137 0.364186 0.00907516
5030 1 0.03193 0.379285 0.00123799
16661 1 0.0714625 0.38202 0.00836657
992 1 0.246192 0.388519 0.0105803
5771 1 0.857556 0.379458 0.0085949
4706 1 0.248091 0.402022 0.00700169
1683 1 0.353977 0.399682 0.0033032
1503 1 0.611437 0.401632 0.0102961
3526 1 0.932337 0.402482 0.0110757
12829 1 0.924129 0.3985 0.00244046
16157 1 0.982395 0.400333 0.00356024
13385 1 0.352218 0.414262 0.00017839
6495 1 0.56401 0.407182 0.00384914
11777 1 0.749076 0.412525 0.00342333
6084 1 0.120584 0.423573 0.00407905
7317 1 0.168078 0.424912 0.000160245
15235 1 0.385734 0.42818 0.00988693
7679 1 0.860477 0.420615 0.00648534
2329 1 0.725174 0.430354 0.00250852
6162 1 0.820947 0.437034 0.0117248
5662 1 0.134752 0.447252 0.00544451
10811 1 0.458136 0.454382 0.00302387
8489 1 0.561665 0.445282 0.00882192
12946 1 0.772986 0.444025 0.0066945
6366 1 0.0787726 0.46011 0.00493384
16562 1 0.443683 0.455934 0.00778578
5780 1 0.51733 0.45643 0.00855263
14203 1 0.830242 0.467085 0.00697121
4071 1 0.0764179 0.480958 0.0065949
5281 1 0.243304 0.468749 0.0126903
10642 1 0.0105819 0.48368 0.0110109
4107 1 0.112133 0.492627 0.0085295
4707 1 0.486699 0.487153 0.00568531
1584 1 0.0679777 0.506144 0.00795103
9562 1 0.501546 0.511517 0.000893255
6112 1 0.894579 0.519267 0.0094298
3096 1 0.0558115 0.527483 0.00288697
6071 1 0.212331 0.530774 0.0111722
13932 1 0.592529 0.524685 0.0113236
10934 1 0.636383 0.525369 0.0106377
14506 1 0.144237 0.547608 0.00904661
9017 1 0.843344 0.546985 0.00305483
14845 1 0.363051 0.563997 0.00590713
16010 1 0.50754 0.566278 0.0062076
16053 1 0.680077 0.560986 0.0107268
3839 1 0.703952 0.567256 0.00706516
2635 1 0.779726 0.571909 0.00218193
7139 1 0.902957 0.568242 0.00907381
14874 1 0.231616 0.580047 0.012934
10166 1 0.391285 0.584615 0.00163142
16340 1 0.938601 0.57797 0.00745784
6499 1 0.645405 0.594562 0.00737254
8820 1 0.927487 0.595956 0.0101394
15425 1 0.960447 0.587006 0.000193655
12267 1 0.137095 0.618113 0.00487198
839 1 0.91533 0.619627 0.00287014
302 1 0.46957 0.629564 0.00810148
12665 1 0.616787 0.626023 0.0129367
11657 1 0.036483 0.646549 0.00125579
12894 1 0.149616 0.637871 0.00990777
3672 1 0.355902 0.645535 0.00220429
13312 1 0.59604 0.650032 0.00135738
12159 1 0.66365 0.66192 0.0073905
8148 1 0.351211 0.667476 0.00191828
2696 1 0.742567 0.67043 0.0105171
8348 1 0.979772 0.667678 0.012861
8281 1 0.00788567 0.676539 0.00867083
11358 1 0.16155 0.678234 0.000570685
10567 1 0.262834 0.680122 0.0101008
12978 1 0.756843 0.688233 0.0071261
15448 1 0.796385 0.686725 0.00110273
2761 1 0.459485 0.697802 0.0086173
696 1 0.902287 0.699109 0.00561652
10378 1 0.0923371 0.702332 0.0051299
7628 1 0.714599 0.711109 0.00366845
14387 1 0.477431 0.726709 0.00785777
6510 1 0.682662 0.724483 0.00438024
15873 1 0.817569 0.723409 0.000683955
2023 1 0.657901 0.739477 0.00613783
12393 1 0.0124763 0.747346 0.00199613
4297 1 0.269389 0.763448 0.00514704
7199 1 0.476886 0.766584 0.00665315
1054 1 0.69536 0.776422 0.00033024
2254 1 0.814742 0.768863 0.0084784
14742 1 0.972159 0.778924 0.0123083
8298 1 0.409764 0.781302 0.00401273
6075 1 0.461155 0.790839 0.00221663
14392 1 0.801163 0.787222 0.00849499
10468 1 0.8435 0.782332 0.0126084
4364 1 0.915562 0.784372 0.00895361
13912 1 0.929674 0.79069 0.0128328
13299 1 0.361397 0.793452 0.0126238
237 1 0.427426 0.795114 0.0107283
9938 1 0.465238 0.794626 0.00630315
2395 1 0.774191 0.805688 0.0123029
5288 1 0.645268 0.808588 0.0123879
4330 1 0.700407 0.817568 0.00066502
9899 1 0.709862 0.813032 0.00104865
16242 1 0.0123612 0.829502 0.00019206
7994 1 0.551004 0.81924 0.00190638
1538 1 0.603471 0.824423 0.0126014
14162 1 0.62402 0.832294 0.0046163
5452 1 0.853089 0.837268 0.0124147
2210 1 0.00343302 0.85082 0.00847789
4939 1 0.68049 0.846998 0.00019232
11262 1 0.8991 0.859846 0.00448756
896 1 0.128634 0.878169 0.00879598
3336 1 0.124559 0.874886 0.00407332
11592 1 0.426974 0.881936 0.00172255
7967 1 0.0645848 0.890395 0.00453403
1630 1 0.429951 0.88774 9.5895e-05
5786 1 0.680423 0.91546 0.00250137
13996 1 0.898437 0.916697 0.0125807
16046 1 0.897184 0.912404 0.00471806
3461 1 0.171905 0.923793 0.00248165
2604 1 0.257007 0.941736 0.009832
14850 1 0.385904 0.947857 0.00697376
10705 1 0.94398 0.939922 0.00741811
1725 1 0.0327994 0.974777 0.000909625
7164 1 0.209557 0.962563 0.00128582
3962 1 0.286223 0.96656 0.00373214
11434 1 0.442728 0.963303 0.00147654
5840 1 0.849047 0.966267 0.00186652
10179 1 0.99422 0.969603 0.00747687
16528 1 0.372075 0.976479 0.00467913
16792 1 0.417527 0.978426 0.00482223
2768 1 0.497779 0.980376 0.00560434
5811 1 0.722102 0.982625 0.0051988
16126 1 0.444291 0.988859 0.00847951
5487 1 0.495964 0.997682 0.000879885
8896 1 0.0803269 0.00541088 0.0244479
2142 1 0.555652 0.00894061 0.0250634
1164 1 0.174141 0.0203487 0.0208575
6143 1 0.671308 0.0173143 0.0182969
2917 1 0.323909 0.036078 0.0208505
7962 1 0.606615 0.0276221 0.0187267
8356 1 0.463789 0.0464841 0.0192667
3664 1 0.492271 0.050421 0.0182128
5881 1 0.628333 0.0486169 0.0206718
11256 1 0.852273 0.0429841 0.0130733
2528 1 0.0462528 0.0615634 0.0192548
4924 1 0.243108 0.052962 0.0181165
10373 1 0.286123 0.0522675 0.0207833
10680 1 0.390653 0.0594323 0.0179643
2802 1 0.961709 0.0527901 0.0134786
6190 1 0.0128691 0.0768576 0.0203936
13203 1 0.491957 0.0650455 0.0145168
13857 1 0.504336 0.0704229 0.0188508
1065 1 0.959612 0.0673677 0.0192243
5391 1 0.116178 0.0823065 0.0206916
14967 1 0.81517 0.0809233 0.0223865
2002 1 0.295929 0.0978742 0.0216935
1663 1 0.328713 0.0913997 0.0190481
8288 1 0.873187 0.102312 0.0210096
10689 1 0.246873 0.11688 0.017534
4397 1 0.543408 0.112758 0.0166382
3928 1 0.592742 0.109094 0.0150786
565 1 0.726964 0.112921 0.0164639
14205 1 0.845305 0.112945 0.018362
10699 1 0.163672 0.132144 0.021551
1049 1 0.378283 0.135249 0.0155902
6151 1 0.923098 0.135795 0.0149007
9582 1 0.789204 0.152855 0.0199827
10036 1 0.846396 0.151925 0.0193156
10639 1 0.52971 0.157132 0.0179384
15983 1 0.368352 0.170052 0.0199648
5721 1 0.858547 0.17509 0.0247697
16379 1 0.244401 0.182023 0.0143946
12430 1 0.62543 0.187125 0.0179503
12642 1 0.848471 0.184679 0.0142006
2895 1 0.0867481 0.19518 0.0140819
13754 1 0.264578 0.206415 0.0164688
10224 1 0.691312 0.203228 0.0168131
1889 1 0.509334 0.213356 0.0136678
11383 1 0.834565 0.213376 0.0145652
8128 1 0.18067 0.225402 0.0182218
14528 1 0.00543091 0.235756 0.0195664
3110 1 0.340084 0.23572 0.0142291
8851 1 0.840643 0.245237 0.0231205
9009 1 0.842714 0.234676 0.0239265
14482 1 0.0867168 0.247191 0.0237393
8019 1 0.332501 0.252008 0.0188115
1405 1 0.513446 0.249947 0.0253514
13527 1 0.553832 0.258788 0.020859
4518 1 0.744474 0.247497 0.0247322
10520 1 0.92962 0.255487 0.018767
9427 1 0.573842 0.266584 0.0158024
7407 1 0.612934 0.26774 0.0213238
155 1 0.882039 0.261464 0.0214126
1961 1 0.137833 0.284131 0.0227246
12343 1 0.218372 0.276953 0.0143632
4143 1 0.39539 0.273665 0.0200745
12702 1 0.592865 0.275158 0.0223507
6228 1 0.175208 0.296271 0.0187647
4538 1 0.502148 0.287248 0.0258348
11109 1 0.406988 0.302172 0.0139093
2586 1 0.0782217 0.315818 0.0220236
1608 1 0.146793 0.314685 0.025838
2513 1 0.432881 0.318871 0.015903
8002 1 0.58602 0.31834 0.0215108
10365 1 0.627427 0.322951 0.0169823
12661 1 0.172322 0.343924 0.0203525
4647 1 0.689093 0.341146 0.017644
16177 1 0.76188 0.344138 0.0216344
15604 1 0.797028 0.342819 0.0184582
14716 1 0.325613 0.362096 0.0156692
7717 1 0.64688 0.351758 0.0140627
5313 1 0.0913451 0.364887 0.0251729
12409 1 0.572336 0.367089 0.0161202
5329 1 0.646077 0.377721 0.0242993
4476 1 0.927185 0.387979 0.0159859
287 1 0.0659454 0.402725 0.0137407
9277 1 0.62119 0.395125 0.0156629
7943 1 0.788445 0.392735 0.0217764
16023 1 0.393295 0.411769 0.0135592
11814 1 0.659387 0.412148 0.0259191
1747 1 0.097659 0.420767 0.0210236
8839 1 0.258697 0.416847 0.0210368
3977 1 0.529665 0.423814 0.013123
15509 1 0.675144 0.424621 0.0204563
4759 1 0.94672 0.422966 0.0156155
2166 1 0.268634 0.436637 0.0170067
10896 1 0.422502 0.439662 0.0143755
10646 1 0.690235 0.438898 0.0253151
6508 1 0.248388 0.445424 0.0145752
13864 1 0.400006 0.454882 0.0228101
13287 1 0.697116 0.445485 0.0243194
3037 1 0.882486 0.460563 0.0164113
11882 1 0.545465 0.468306 0.0242967
13177 1 0.912519 0.480893 0.0187067
118 1 0.993264 0.469769 0.0213684
3407 1 0.885746 0.505146 0.0172126
4220 1 0.970861 0.499197 0.0205552
10033 1 0.982886 0.505504 0.0201582
6005 1 0.0915589 0.50786 0.0252326
1403 1 0.327192 0.511021 0.0197621
3275 1 0.444377 0.512719 0.0136797
424 1 0.831812 0.509218 0.0175599
9591 1 0.0819837 0.526867 0.0152144
4065 1 0.315394 0.524076 0.0228943
10620 1 0.571351 0.529465 0.0149983
3950 1 0.678312 0.522722 0.0178715
5795 1 0.555424 0.537227 0.0172741
849 1 0.618761 0.533648 0.0207254
10462 1 0.667618 0.533069 0.0181192
1110 1 0.350261 0.548875 0.0232346
2441 1 0.574726 0.552255 0.0185652
2078 1 0.888941 0.548729 0.0191242
14502 1 0.948222 0.553129 0.0148931
7894 1 0.318834 0.568173 0.0152392
6765 1 0.659591 0.57006 0.0242709
13358 1 0.778949 0.561643 0.0160875
317 1 0.887416 0.561611 0.0173822
3251 1 0.331044 0.579176 0.0232028
2893 1 0.768669 0.577401 0.0188289
5226 1 0.909381 0.581019 0.0193271
667 1 0.78094 0.585902 0.0180936
3642 1 0.0851384 0.609028 0.0151519
10592 1 0.198544 0.621233 0.0151802
15807 1 0.0711882 0.645887 0.0177918
139 1 0.271337 0.637917 0.0176773
12227 1 0.530034 0.646758 0.0131178
1112 1 0.795346 0.641188 0.0225881
13615 1 0.601188 0.65587 0.0149188
422 1 0.638548 0.659803 0.0176994
4085 1 0.0196861 0.669609 0.013544
9688 1 0.648836 0.670605 0.0149396
11542 1 0.751838 0.6643 0.014961
2754 1 0.78129 0.665002 0.0163349
2641 1 0.0368082 0.676567 0.0162137
12877 1 0.562369 0.686034 0.018655
1336 1 0.823491 0.686298 0.0173205
13353 1 0.515881 0.6968 0.0146002
7059 1 0.831084 0.69419 0.020594
2457 1 0.834583 0.694246 0.0232725
3914 1 0.137558 0.707174 0.015064
2725 1 0.524609 0.70242 0.0234042
455 1 0.896571 0.727789 0.0231254
15621 1 0.898196 0.726232 0.0190489
10167 1 0.0561902 0.729866 0.0220037
1794 1 0.30095 0.73852 0.0134251
8755 1 0.374142 0.73155 0.0184968
15380 1 0.820082 0.732511 0.0146593
9670 1 0.493189 0.753403 0.0209803
11250 1 0.620089 0.750331 0.0162901
10993 1 0.995978 0.749912 0.0258206
11619 1 0.225631 0.760824 0.0226807
6285 1 0.682849 0.774527 0.0159325
15751 1 0.562268 0.781231 0.0212157
7687 1 0.627944 0.791706 0.0196481
6825 1 0.324506 0.798469 0.0216075
12360 1 0.574638 0.805885 0.0131195
7903 1 0.607688 0.796933 0.0136078
3320 1 0.789965 0.800426 0.021171
6646 1 0.141377 0.814584 0.0231274
4248 1 0.497716 0.808116 0.0199846
8904 1 0.856559 0.809759 0.0153116
4272 1 0.889331 0.816587 0.0141265
15327 1 0.165593 0.831251 0.023403
2075 1 0.44968 0.821197 0.0174108
14495 1 0.731139 0.826405 0.0173559
11468 1 0.772066 0.821607 0.0222785
2515 1 0.891191 0.830231 0.0213782
8925 1 0.723056 0.837771 0.0204801
1437 1 0.372061 0.848501 0.0252744
2522 1 0.28941 0.858001 0.014005
1721 1 0.476768 0.859512 0.0234431
1158 1 0.821117 0.861593 0.0182622
7730 1 0.969757 0.865021 0.0218463
13218 1 0.0763737 0.878811 0.0250631
15598 1 0.0945339 0.883749 0.0135258
11072 1 0.80728 0.882844 0.025376
5809 1 0.853668 0.878781 0.0239592
10005 1 0.464139 0.894414 0.0188562
5300 1 0.512926 0.905387 0.0149698
1801 1 0.553705 0.904645 0.0232303
15192 1 0.11008 0.917063 0.0140292
4709 1 0.192255 0.912544 0.0213188
10831 1 0.266573 0.913128 0.0150449
15467 1 0.486506 0.91565 0.0147704
7143 1 0.521706 0.911807 0.0228241
8404 1 0.591255 0.919179 0.0234069
2752 1 0.932094 0.910045 0.0182197
16381 1 0.113917 0.92619 0.0140685
1909 1 0.24301 0.925017 0.024123
5295 1 0.322759 0.930216 0.0215284
16044 1 0.583269 0.926889 0.0204555
5395 1 0.625067 0.926601 0.0203969
378 1 0.371926 0.937484 0.0175573
532 1 0.398574 0.94125 0.0226895
3450 1 0.873438 0.936606 0.0202829
7963 1 0.955091 0.947958 0.0251747
4616 1 0.109796 0.955596 0.0172528
5416 1 0.240447 0.95261 0.0247001
15188 1 0.840654 0.960892 0.0182275
8567 1 0.105201 0.9629 0.0201658
12643 1 0.344534 0.965832 0.022965
4738 1 0.686602 0.963496 0.0233196
1610 1 0.760141 0.973937 0.0199109
8890 1 0.775773 0.978654 0.0138073
5636 1 0.332335 0.996488 0.0250397
6876 1 0.768898 0.991978 0.0218915
15833 1 0.974864 0.991366 0.019578
6821 1 0.523756 0.00643222 0.0364946
1789 1 0.991826 0.00375153 0.0349665
10893 1 0.00603908 0.0142137 0.0374778
2973 1 0.726192 0.0213725 0.0262169
15990 1 0.116625 0.035062 0.036057
10065 1 0.3205 0.0350738 0.0368867
13160 1 0.407615 0.0366553 0.0349003
15150 1 0.319437 0.04036 0.0345601
14649 1 0.679428 0.0488488 0.0297398
2065 1 0.768503 0.0491376 0.026834
8873 1 0.307481 0.0554866 0.0365524
12192 1 0.886041 0.0525013 0.0372096
11536 1 0.434284 0.0687384 0.0359594
3489 1 0.507079 0.0759107 0.0348576
311 1 0.557326 0.0675683 0.0272763
12139 1 0.723208 0.0668456 0.0312624
12217 1 0.75764 0.066658 0.0344943
3714 1 0.874696 0.0697666 0.0286073
10839 1 0.209224 0.0811857 0.0303564
3259 1 0.472968 0.090046 0.0382254
15585 1 0.489947 0.094906 0.0260653
4137 1 0.706377 0.0936191 0.0297231
1834 1 0.260264 0.104723 0.029039
3029 1 0.439027 0.11665 0.0386393
3660 1 0.53914 0.104538 0.0302724
16167 1 0.626535 0.116558 0.0296903
4760 1 0.847938 0.112071 0.0364412
7405 1 0.235214 0.120638 0.0343077
12295 1 0.321931 0.124641 0.028994
10859 1 0.760606 0.127013 0.0323078
15607 1 0.0375294 0.131041 0.0302028
6432 1 0.258784 0.141403 0.0357021
4559 1 0.404682 0.134162 0.0293906
9487 1 0.68507 0.13212 0.0379034
14083 1 0.711407 0.142432 0.0269821
12299 1 0.746813 0.138169 0.0344094
12484 1 0.751261 0.140434 0.027288
15811 1 0.830353 0.142872 0.0345932
977 1 0.0457014 0.163551 0.0303836
12474 1 0.120198 0.167277 0.0265669
4276 1 0.801383 0.160965 0.0280898
3576 1 0.0523305 0.180618 0.0333425
16258 1 0.467434 0.179395 0.0378926
16149 1 0.783914 0.175529 0.0274904
9448 1 0.828472 0.17859 0.0319952
15762 1 0.829226 0.189311 0.0389336
11073 1 0.848504 0.18617 0.0347921
13303 1 0.7569 0.199475 0.0287203
16778 1 0.796895 0.20552 0.0269726
3524 1 0.46018 0.216948 0.0260964
2723 1 0.133809 0.224418 0.0285411
13515 1 0.29352 0.231308 0.0308208
1008 1 0.512074 0.221885 0.0280339
10849 1 0.134533 0.241209 0.0382267
4467 1 0.3413 0.246143 0.0306721
2659 1 0.358061 0.234148 0.0337439
684 1 0.416543 0.246419 0.0308958
1655 1 0.956894 0.244735 0.0344929
5171 1 0.984662 0.243721 0.0339516
8208 1 0.835773 0.257348 0.0307682
14860 1 0.878517 0.256042 0.0364486
475 1 0.970467 0.253593 0.0386171
1785 1 0.790441 0.267866 0.0333169
10042 1 0.917574 0.260459 0.0323577
8587 1 0.18022 0.277072 0.0300389
9065 1 0.777362 0.276617 0.0304651
194 1 0.663529 0.287935 0.0328948
1149 1 0.682649 0.29529 0.0368142
333 1 0.116776 0.303682 0.0321235
15622 1 0.118349 0.304154 0.0289549
7368 1 0.177744 0.301705 0.0329511
9067 1 0.409165 0.300425 0.0308207
15576 1 0.744467 0.29934 0.0294173
3370 1 0.827309 0.301377 0.029244
5607 1 0.825137 0.300696 0.0296913
10721 1 0.531443 0.31526 0.0335479
5190 1 0.772878 0.3121 0.0260748
10027 1 0.93473 0.318114 0.0299223
3586 1 0.0115885 0.331639 0.027183
15063 1 0.445241 0.335618 0.0318631
11632 1 0.647891 0.32549 0.0272858
14673 1 0.730703 0.332525 0.0332597
8392 1 0.936844 0.330458 0.0329519
9033 1 0.593809 0.342698 0.0352806
11966 1 0.681765 0.345582 0.0279135
8958 1 0.00156645 0.353542 0.026902
9167 1 0.521544 0.360942 0.0330098
10797 1 0.798154 0.361373 0.0380232
10785 1 0.477308 0.365563 0.030508
14970 1 0.607704 0.373084 0.033332
8655 1 0.770281 0.376658 0.029668
12049 1 0.672004 0.385501 0.0308112
2552 1 0.976624 0.388754 0.0260511
11745 1 0.592426 0.394513 0.0333659
15415 1 0.115906 0.413755 0.034916
2219 1 0.691873 0.411348 0.0337553
14543 1 0.945394 0.415153 0.0331598
5442 1 0.0933722 0.417617 0.0299896
10864 1 0.317721 0.438 0.0372183
1337 1 0.544937 0.44121 0.0278375
3934 1 0.762332 0.447654 0.0362735
6645 1 0.0465948 0.464749 0.0300172
10952 1 0.0474432 0.455913 0.0328322
8702 1 0.749899 0.467004 0.0287933
8753 1 0.878784 0.474467 0.0374123
11546 1 0.0882182 0.489568 0.0274732
2190 1 0.142225 0.485374 0.033411
11470 1 0.496477 0.483535 0.0312018
2079 1 0.210889 0.497646 0.0387685
9115 1 0.0157637 0.518795 0.034592
7562 1 0.468818 0.51897 0.030491
11808 1 0.496615 0.517038 0.0282556
13803 1 0.671208 0.513856 0.0351983
13390 1 0.937149 0.509358 0.0265884
1868 1 0.407031 0.526678 0.0372536
15563 1 0.5971 0.524841 0.0289041
2733 1 0.931551 0.523947 0.0278048
7614 1 0.11861 0.538271 0.03515
7430 1 0.84801 0.536432 0.0379569
5063 1 0.0666976 0.568494 0.030009
1208 1 0.404802 0.569882 0.0370572
1833 1 0.518193 0.570828 0.037922
11068 1 0.696883 0.576615 0.0278128
1602 1 0.789007 0.582581 0.0297474
5245 1 0.282128 0.591469 0.0314188
4029 1 0.294669 0.58835 0.0300579
14603 1 0.866915 0.590239 0.0312045
10553 1 0.117342 0.60563 0.0288636
13607 1 0.353646 0.604752 0.0299673
278 1 0.0597888 0.614165 0.0352351
10147 1 0.23191 0.611354 0.0314721
16756 1 0.560782 0.616298 0.0376479
11671 1 0.287454 0.625529 0.0299558
12480 1 0.495245 0.628879 0.0286238
7922 1 0.870645 0.632814 0.0378707
6478 1 0.570017 0.646335 0.0372822
11496 1 0.0181861 0.6526 0.0281556
7915 1 0.80194 0.65983 0.0364249
3271 1 0.161863 0.663562 0.0292959
9430 1 0.200194 0.664679 0.0361488
5571 1 0.340744 0.671402 0.0329882
9931 1 0.394647 0.690331 0.0272465
7301 1 0.644516 0.691401 0.0383051
7831 1 0.70959 0.690976 0.0380174
11234 1 0.714995 0.697037 0.035317
13483 1 0.194913 0.704918 0.0289094
12663 1 0.443257 0.717394 0.032534
3994 1 0.144591 0.728023 0.0366018
14305 1 0.20649 0.733408 0.0295707
3382 1 0.626877 0.729863 0.0387958
5863 1 0.94238 0.73524 0.0284128
11307 1 0.455634 0.744213 0.0273279
12952 1 0.904058 0.750683 0.0283538
8789 1 0.0338409 0.765946 0.0340603
320 1 0.251377 0.762159 0.0310032
7579 1 0.680711 0.759304 0.0301853
13471 1 0.887318 0.762345 0.0380307
16022 1 0.293067 0.769114 0.0374607
16710 1 0.501075 0.779536 0.0315495
7134 1 0.598814 0.770626 0.0372491
12425 1 0.955909 0.774246 0.0355114
11369 1 0.9828 0.769709 0.0265061
16593 1 0.637692 0.789766 0.0305692
11386 1 0.157508 0.80222 0.0298736
5184 1 0.321573 0.793649 0.028196
7259 1 0.599173 0.802396 0.0334844
462 1 0.726529 0.803755 0.0279784
9886 1 0.54106 0.809849 0.0353863
8468 1 0.965449 0.807192 0.0266151
11456 1 0.115534 0.82254 0.0267214
6423 1 0.457864 0.820417 0.0383352
9155 1 0.770881 0.827528 0.0283264
11581 1 0.49272 0.833914 0.0352177
15943 1 0.75489 0.849899 0.0355623
5932 1 0.797887 0.846522 0.0342181
11647 1 0.821697 0.855057 0.0375883
3162 1 0.0235223 0.865433 0.0311083
15038 1 0.397297 0.876849 0.0352201
9794 1 0.666174 0.871874 0.03693
15291 1 0.934587 0.876993 0.0307041
16697 1 0.944406 0.896594 0.0383913
15978 1 0.438888 0.909594 0.0296417
15209 1 0.740963 0.909209 0.0293653
16595 1 0.737015 0.902755 0.0357183
2607 1 0.997637 0.897444 0.0321648
3492 1 0.0552734 0.922314 0.0314046
9577 1 0.681239 0.917928 0.0293641
1645 1 0.793341 0.922808 0.0332311
8459 1 0.714456 0.930848 0.0342259
387 1 0.778797 0.930795 0.0314784
12909 1 0.736599 0.938963 0.0321668
8106 1 0.965319 0.946911 0.033872
11820 1 0.0631562 0.959331 0.0306583
5151 1 0.307236 0.95889 0.0312613
9367 1 0.439611 0.959943 0.0382902
10783 1 0.328258 0.964569 0.0362879
15986 1 0.501956 0.967226 0.0265381
656 1 0.555792 0.972852 0.0384918
4425 1 0.710342 0.966088 0.0315001
2426 1 0.879615 0.967696 0.0268473
6635 1 0.079181 0.980675 0.0321818
12285 1 0.406257 0.978076 0.0361359
13699 1 0.78778 0.00789755 0.0449258
5927 1 0.937085 0.0221075 0.0500523
6421 1 0.312649 0.0284616 0.0479048
10048 1 0.457361 0.0325445 0.0473744
8977 1 0.814168 0.0315142 0.0513421
1808 1 0.206872 0.0512629 0.0452817
11429 1 0.371786 0.0441396 0.0464758
6936 1 0.378865 0.0429874 0.0423318
6273 1 0.437203 0.0501028 0.0517385
14916 1 0.970702 0.0461689 0.0446143
9550 1 0.446764 0.0595023 0.0490863
4366 1 0.518928 0.0530034 0.0407925
970 1 0.750787 0.0624384 0.05047
1673 1 0.0372913 0.0654388 0.0420541
7437 1 0.640891 0.0748562 0.0473462
7925 1 0.657845 0.0899194 0.0444959
2933 1 0.704871 0.0890751 0.0505451
4680 1 0.948475 0.0864619 0.0510558
12680 1 0.151483 0.0923199 0.0448608
11710 1 0.308929 0.103257 0.0468218
8699 1 0.315224 0.0910937 0.0471233
7759 1 0.38535 0.0921511 0.0464465
10921 1 0.44748 0.103591 0.047796
9853 1 0.309848 0.113721 0.0405983
16264 1 0.774434 0.106545 0.0505635
9732 1 0.822853 0.114116 0.0496927
16573 1 0.947756 0.114192 0.0493895
15280 1 0.554166 0.119842 0.0430565
8238 1 0.601109 0.129008 0.0417236
1518 1 0.696574 0.125497 0.0457538
6390 1 0.753522 0.126188 0.0507094
11204 1 0.0633372 0.131454 0.0437373
5246 1 0.251337 0.142802 0.0513383
2591 1 0.308462 0.133063 0.0421965
10268 1 0.613673 0.142979 0.0488819
12067 1 0.691223 0.130783 0.0407356
6140 1 0.708059 0.140263 0.0422945
16473 1 0.798683 0.13017 0.0442727
7506 1 0.178699 0.155085 0.0440145
12995 1 0.5195 0.149498 0.0513031
9407 1 0.661455 0.152394 0.0466747
217 1 0.183871 0.168364 0.0414043
1753 1 0.955848 0.156555 0.0395491
15013 1 0.121438 0.183227 0.0460529
10998 1 0.148057 0.185912 0.0485169
13962 1 0.438093 0.190773 0.0470177
8486 1 0.463165 0.191362 0.0470857
6676 1 0.562222 0.18697 0.0489552
9432 1 0.885489 0.19411 0.0408351
14155 1 0.197404 0.201201 0.0494972
12410 1 0.351902 0.19713 0.0392208
6293 1 0.38165 0.197857 0.0514768
12852 1 0.411104 0.205513 0.0491294
12656 1 0.0768804 0.21451 0.0403776
13712 1 0.262303 0.212423 0.0404673
12155 1 0.470707 0.21551 0.0448766
3049 1 0.595095 0.211667 0.0483785
15693 1 0.816217 0.216519 0.0472106
315 1 0.948552 0.211851 0.0421905
11970 1 0.0621368 0.241629 0.0415329
16243 1 0.118027 0.243915 0.0406619
6948 1 0.281393 0.246446 0.0455702
825 1 0.614854 0.23856 0.042056
6865 1 0.921971 0.23718 0.0503482
2176 1 0.62427 0.249561 0.0490133
11864 1 0.746268 0.259182 0.0490826
10029 1 0.419207 0.269708 0.0409921
3821 1 0.699496 0.270861 0.0445141
1804 1 0.0561563 0.275886 0.0471077
15385 1 0.512944 0.281031 0.0452514
7786 1 0.821163 0.274176 0.0434857
7728 1 0.92244 0.279694 0.0455588
11999 1 0.174724 0.297377 0.0509009
3935 1 0.464982 0.292468 0.0484279
2634 1 0.721397 0.292813 0.0395272
5012 1 0.0970677 0.302736 0.0473358
10383 1 0.195207 0.302874 0.0468256
7665 1 0.649539 0.302692 0.0503579
12088 1 0.901606 0.312631 0.0447589
11578 1 0.286293 0.326104 0.0392804
15427 1 0.584086 0.328735 0.0402331
9391 1 0.14004 0.346518 0.0398416
8456 1 0.360689 0.340289 0.0496655
5018 1 0.0579294 0.359222 0.051857
15864 1 0.345033 0.358297 0.0453475
1042 1 0.489136 0.373362 0.0435962
13277 1 0.513773 0.369691 0.0424591
5648 1 0.202416 0.384645 0.0474522
16413 1 0.540298 0.384061 0.0393476
14762 1 0.749704 0.380735 0.0432378
8313 1 0.803756 0.377283 0.042047
5072 1 0.194948 0.390537 0.0504528
7418 1 0.410731 0.400625 0.0486819
10630 1 0.466151 0.414784 0.0501272
3796 1 0.989244 0.410257 0.0466649
1607 1 0.172371 0.424035 0.0445885
6800 1 0.3289 0.420088 0.0404133
11393 1 0.399098 0.423793 0.0511042
11977 1 0.521558 0.417678 0.0474699
16673 1 0.59142 0.416429 0.0455061
2546 1 0.911164 0.426755 0.0474309
6580 1 0.741695 0.431506 0.0408133
4816 1 0.187148 0.448626 0.0481495
2817 1 0.824026 0.442317 0.0512017
1382 1 0.923894 0.456157 0.0516668
3278 1 0.965314 0.466239 0.0401245
5238 1 0.234306 0.468219 0.0479259
3763 1 0.526802 0.480029 0.04754
15222 1 0.712317 0.475374 0.0403035
12540 1 0.0947393 0.492151 0.0421512
5500 1 0.367852 0.486849 0.0472185
340 1 0.515331 0.48406 0.0455105
16699 1 0.605586 0.492436 0.0507782
8091 1 0.328407 0.500475 0.0421372
14497 1 0.543469 0.498242 0.0495179
15974 1 0.891736 0.496796 0.0517223
11926 1 0.493506 0.510511 0.0446379
8146 1 0.620199 0.532226 0.0439474
11292 1 0.0202061 0.542629 0.0414201
2699 1 0.180042 0.541476 0.0409642
3993 1 0.0662849 0.550922 0.0391985
9098 1 0.248867 0.547268 0.0414532
14546 1 0.282329 0.552707 0.0446855
12455 1 0.0377768 0.571203 0.043505
2838 1 0.678558 0.563562 0.0462403
14036 1 0.838116 0.566529 0.0519903
10011 1 0.182645 0.576102 0.0402604
5776 1 0.99925 0.583838 0.0515024
2427 1 0.105789 0.58684 0.046829
14806 1 0.11751 0.597908 0.0425247
10403 1 0.512093 0.605005 0.0514866
1898 1 0.681767 0.609737 0.0499017
8353 1 0.816553 0.600437 0.0407855
910 1 0.106685 0.62163 0.04673
10948 1 0.173113 0.614156 0.0430345
991 1 0.687998 0.614842 0.0477129
588 1 0.135224 0.624652 0.0444379
8711 1 0.405491 0.626321 0.0438089
8114 1 0.622658 0.626271 0.0471287
4127 1 0.661715 0.634629 0.0411533
8442 1 0.70797 0.636662 0.0405583
6637 1 0.0992627 0.644662 0.0451957
3567 1 0.246417 0.645445 0.0419918
2058 1 0.686639 0.648317 0.0494999
3765 1 0.296519 0.652175 0.0451239
13383 1 0.701776 0.6514 0.0507328
13037 1 0.330268 0.669202 0.0513447
16707 1 0.365933 0.67277 0.0391679
4674 1 0.378604 0.675205 0.0408066
8140 1 0.583393 0.665754 0.0504041
13294 1 0.741005 0.667167 0.0454345
15719 1 0.161091 0.677888 0.0428951
2031 1 0.367758 0.686727 0.0479078
7929 1 0.47617 0.682549 0.0423384
6470 1 0.643604 0.67612 0.0412837
15879 1 0.738819 0.681675 0.0500021
8861 1 0.787093 0.688096 0.0512817
8209 1 0.118256 0.69641 0.0440962
8466 1 0.423724 0.693674 0.0420141
4040 1 0.620396 0.699562 0.0421685
14240 1 0.0599617 0.709631 0.0477209
6241 1 0.381418 0.710623 0.044856
14993 1 0.488309 0.710485 0.046713
9209 1 0.35702 0.72558 0.0507893
16218 1 0.79967 0.717692 0.0419909
2540 1 0.950092 0.725308 0.0471334
1609 1 0.314657 0.73952 0.0448919
13516 1 0.275108 0.748941 0.0467572
13737 1 0.484578 0.748548 0.0457604
3050 1 0.759845 0.748787 0.0406331
8673 1 0.275735 0.7556 0.0513107
12851 1 0.416039 0.760332 0.0438457
13118 1 0.732584 0.758453 0.0472147
7539 1 0.593208 0.789824 0.0427269
11606 1 0.622536 0.793924 0.0514451
16086 1 0.897915 0.80058 0.0464886
11412 1 0.414168 0.828676 0.0394109
11268 1 0.42304 0.82994 0.0518947
2997 1 0.452562 0.819929 0.0429846
9398 1 0.888378 0.823049 0.0398477
15155 1 0.380537 0.843863 0.0417849
2861 1 0.747125 0.835517 0.0394875
816 1 0.818105 0.836779 0.0420255
3101 1 0.965517 0.835861 0.041145
11077 1 0.967562 0.843827 0.0406393
8888 1 0.236265 0.851424 0.0498015
10969 1 0.329791 0.848835 0.0457712
4550 1 0.523639 0.858787 0.0517044
14746 1 0.713571 0.863707 0.0518952
5832 1 0.848491 0.860664 0.0487573
1265 1 0.223156 0.876815 0.0408414
7310 1 0.654898 0.881604 0.0398412
15240 1 0.687174 0.883174 0.0478533
10083 1 0.762459 0.890232 0.0516978
286 1 0.395611 0.909484 0.0511351
9559 1 0.465334 0.899125 0.0390959
10172 1 0.946465 0.899504 0.0438591
1215 1 0.212024 0.914415 0.0488283
9388 1 0.373646 0.912431 0.0485137
7632 1 0.473244 0.930461 0.0390504
16706 1 0.768363 0.923662 0.0473824
5330 1 0.297908 0.942158 0.0392447
8112 1 0.850837 0.93707 0.049537
9311 1 0.136585 0.950791 0.0473627
15691 1 0.14221 0.957783 0.0438467
11116 1 0.153294 0.959578 0.03993
9758 1 0.748763 0.95314 0.0399314
14889 1 0.896329 0.952085 0.0490097
13930 1 0.423219 0.973865 0.051819
13057 1 0.702645 0.964712 0.0402389
14541 1 0.522635 0.980428 0.0450442
8738 1 0.559721 0.983623 0.0501008
10780 1 0.499184 0.99382 0.0433262
1295 1 0.607514 0.998902 0.0497159
6095 1 0.0318599 0.0110134 0.0559945
8421 1 0.0268779 0.00739366 0.0593428
5095 1 0.2136 0.00901762 0.0552817
3418 1 0.842893 0.0105751 0.0588589
1682 1 0.847202 0.0125678 0.0553563
7052 1 0.252109 0.027744 0.0575859
2562 1 0.434816 0.0264106 0.0616733
3852 1 0.476027 0.031352 0.0545091
16516 1 0.489919 0.0288523 0.0605557