4000
Atoms. Timestep: 0
1 0 0 0
1 0.839798 0.839798 0
1 0.839798 0 0.839798
1 0 0.839798 0.839798
1 1.6796 0 0
1 2.51939 0.839798 0
1 2.51939 0 0.839798
1 1.6796 0.839798 0.839798
1 3.35919 0 0
1 4.19899 0.839798 0
1 4.19899 0 0.839798
1 3.35919 0.839798 0.839798
1 5.03879 0 0
1 5.87859 0.839798 0
1 5.87859 0 0.839798
1 5.03879 0.839798 0.839798
1 6.71838 0 0
1 7.55818 0.839798 0
1 7.55818 0 0.839798
1 6.71838 0.839798 0.839798
1 8.39798 0 0
1 9.23778 0.839798 0
1 9.23778 0 0.839798
1 8.39798 0.839798 0.839798
1 10.0776 0 0
1 10.9174 0.839798 0
1 10.9174 0 0.839798
1 10.0776 0.839798 0.839798
1 11.7572 0 0
1 12.597 0.839798 0
1 12.597 0 0.839798
1 11.7572 0.839798 0.839798
1 13.4368 0 0
1 14.2766 0.839798 0
1 14.2766 0 0.839798
1 13.4368 0.839798 0.839798
1 15.1164 0 0
1 15.9562 0.839798 0
1 15.9562 0 0.839798
1 15.1164 0.839798 0.839798
1 0 1.6796 0
1 0.839798 2.51939 0
1 0.839798 1.6796 0.839798
1 0 2.51939 0.839798
1 1.6796 1.6796 0
1 2.51939 2.51939 0
1 2.51939 1.6796 0.839798
1 1.6796 2.51939 0.839798
1 3.35919 1.6796 0
1 4.19899 2.51939 0
1 4.19899 1.6796 0.839798
1 3.35919 2.51939 0.839798
1 5.03879 1.6796 0
1 5.87859 2.51939 0
1 5.87859 1.6796 0.839798
1 5.03879 2.51939 0.839798
1 6.71838 1.6796 0
1 7.55818 2.51939 0
1 7.55818 1.6796 0.839798
1 6.71838 2.51939 0.839798
1 8.39798 1.6796 0
1 9.23778 2.51939 0
1 9.23778 1.6796 0.839798
1 8.39798 2.51939 0.839798
1 10.0776 1.6796 0
1 10.9174 2.51939 0
1 10.9174 1.6796 0.839798
1 10.0776 2.51939 0.839798
1 11.7572 1.6796 0
1 12.597 2.51939 0
1 12.597 1.6796 0.839798
1 11.7572 2.51939 0.839798
1 13.4368 1.6796 0
1 14.2766 2.51939 0
1 14.2766 1.6796 0.839798
1 13.4368 2.51939 0.839798
1 15.1164 1.6796 0
1 15.9562 2.51939 0
1 15.9562 1.6796 0.839798
1 15.1164 2.51939 0.839798
1 0 3.35919 0
1 0.839798 4.19899 0
1 0.839798 3.35919 0.839798
1 0 4.19899 0.839798
1 1.6796 3.35919 0
1 2.51939 4.19899 0
1 2.51939 3.35919 0.839798
1 1.6796 4.19899 0.839798
1 3.35919 3.35919 0
1 4.19899 4.19899 0
1 4.19899 3.35919 0.839798
1 3.35919 4.19899 0.839798
1 5.03879 3.35919 0
1 5.87859 4.19899 0
1 5.87859 3.35919 0.839798
1 5.03879 4.19899 0.839798
1 6.71838 3.35919 0
1 7.55818 4.19899 0
1 7.55818 3.35919 0.839798
1 6.71838 4.19899 0.839798
1 8.39798 3.35919 0
1 9.23778 4.19899 0
1 9.23778 3.35919 0.839798
1 8.39798 4.19899 0.839798
1 10.0776 3.35919 0
1 10.9174 4.19899 0
1 10.9174 3.35919 0.839798
1 10.0776 4.19899 0.839798
1 11.7572 3.35919 0
1 12.597 4.19899 0
1 12.597 3.35919 0.839798
1 11.7572 4.19899 0.839798
1 13.4368 3.35919 0
1 14.2766 4.19899 0
1 14.2766 3.35919 0.839798
1 13.4368 4.19899 0.839798
1 15.1164 3.35919 0
1 15.9562 4.19899 0
1 15.9562 3.35919 0.839798
1 15.1164 4.19899 0.839798
1 0 5.03879 0
1 0.839798 5.87859 0
1 0.839798 5.03879 0.839798
1 0 5.87859 0.839798
1 1.6796 5.03879 0
1 2.51939 5.87859 0
1 2.51939 5.03879 0.839798
1 1.6796 5.87859 0.839798
1 3.35919 5.03879 0
1 4.19899 5.87859 0
1 4.19899 5.03879 0.839798
1 3.35919 5.87859 0.839798
1 5.03879 5.03879 0
1 5.87859 5.87859 0
1 5.87859 5.03879 0.839798
1 5.03879 5.87859 0.839798
1 6.71838 5.03879 0
1 7.55818 5.87859 0
1 7.55818 5.03879 0.839798
1 6.71838 5.87859 0.839798
1 8.39798 5.03879 0
1 9.23778 5.87859 0
1 9.23778 5.03879 0.839798
1 8.39798 5.87859 0.839798
1 10.0776 5.03879 0
1 10.9174 5.87859 0
1 10.9174 5.03879 0.839798
1 10.0776 5.87859 0.839798
1 11.7572 5.03879 0
1 12.597 5.87859 0
1 12.597 5.03879 0.839798
1 11.7572 5.87859 0.839798
1 13.4368 5.03879 0
1 14.2766 5.87859 0
1 14.2766 5.03879 0.839798
1 13.4368 5.87859 0.839798
1 15.1164 5.03879 0
1 15.9562 5.87859 0
1 15.9562 5.03879 0.839798
1 15.1164 5.87859 0.839798
1 0 6.71838 0
1 0.839798 7.55818 0
1 0.839798 6.71838 0.839798
1 0 7.55818 0.839798
1 1.6796 6.71838 0
1 2.51939 7.55818 0
1 2.51939 6.71838 0.839798
1 1.6796 7.55818 0.839798
1 3.35919 6.71838 0
1 4.19899 7.55818 0
1 4.19899 6.71838 0.839798
1 3.35919 7.55818 0.839798
1 5.03879 6.71838 0
1 5.87859 7.55818 0
1 5.87859 6.71838 0.839798
1 5.03879 7.55818 0.839798
1 6.71838 6.71838 0
1 7.55818 7.55818 0
1 7.55818 6.71838 0.839798
1 6.71838 7.55818 0.839798
1 8.39798 6.71838 0
1 9.23778 7.55818 0
1 9.23778 6.71838 0.839798
1 8.39798 7.55818 0.839798
1 10.0776 6.71838 0
1 10.9174 7.55818 0
1 10.9174 6.71838 0.839798
1 10.0776 7.55818 0.839798
1 11.7572 6.71838 0
1 12.597 7.55818 0
1 12.597 6.71838 0.839798
1 11.7572 7.55818 0.839798
1 13.4368 6.71838 0
1 14.2766 7.55818 0
1 14.2766 6.71838 0.839798
1 13.4368 7.55818 0.839798
1 15.1164 6.71838 0
1 15.9562 7.55818 0
1 15.9562 6.71838 0.839798
1 15.1164 7.55818 0.839798
1 0 8.39798 0
1 0.839798 9.23778 0
1 0.839798 8.39798 0.839798
1 0 9.23778 0.839798
1 1.6796 8.39798 0
1 2.51939 9.23778 0
1 2.51939 8.39798 0.839798
1 1.6796 9.23778 0.839798
1 3.35919 8.39798 0
1 4.19899 9.23778 0
1 4.19899 8.39798 0.839798
1 3.35919 9.23778 0.839798
1 5.03879 8.39798 0
1 5.87859 9.23778 0
1 5.87859 8.39798 0.839798
1 5.03879 9.23778 0.839798
1 6.71838 8.39798 0
1 7.55818 9.23778 0
1 7.55818 8.39798 0.839798
1 6.71838 9.23778 0.839798
1 8.39798 8.39798 0
1 9.23778 9.23778 0
1 9.23778 8.39798 0.839798
1 8.39798 9.23778 0.839798
1 10.0776 8.39798 0
1 10.9174 9.23778 0
1 10.9174 8.39798 0.839798
1 10.0776 9.23778 0.839798
1 11.7572 8.39798 0
1 12.597 9.23778 0
1 12.597 8.39798 0.839798
1 11.7572 9.23778 0.839798
1 13.4368 8.39798 0
1 14.2766 9.23778 0
1 14.2766 8.39798 0.839798
1 13.4368 9.23778 0.839798
1 15.1164 8.39798 0
1 15.9562 9.23778 0
1 15.9562 8.39798 0.839798
1 15.1164 9.23778 0.839798
1 0 10.0776 0
1 0.839798 10.9174 0
1 0.839798 10.0776 0.839798
1 0 10.9174 0.839798
1 1.6796 10.0776 0
1 2.51939 10.9174 0
1 2.51939 10.0776 0.839798
1 1.6796 10.9174 0.839798
1 3.35919 10.0776 0
1 4.19899 10.9174 0
1 4.19899 10.0776 0.839798
1 3.35919 10.9174 0.839798
1 5.03879 10.0776 0
1 5.87859 10.9174 0
1 5.87859 10.0776 0.839798
1 5.03879 10.9174 0.839798
1 6.71838 10.0776 0
1 7.55818 10.9174 0
1 7.55818 10.0776 0.839798
1 6.71838 10.9174 0.839798
1 8.39798 10.0776 0
1 9.23778 10.9174 0
1 9.23778 10.0776 0.839798
1 8.39798 10.9174 0.839798
1 10.0776 10.0776 0
1 10.9174 10.9174 0
1 10.9174 10.0776 0.839798
1 10.0776 10.9174 0.839798
1 11.7572 10.0776 0
1 12.597 10.9174 0
1 12.597 10.0776 0.839798
1 11.7572 10.9174 0.839798
1 13.4368 10.0776 0
1 14.2766 10.9174 0
1 14.2766 10.0776 0.839798
1 13.4368 10.9174 0.839798
1 15.1164 10.0776 0
1 15.9562 10.9174 0
1 15.9562 10.0776 0.839798
1 15.1164 10.9174 0.839798
1 0 11.7572 0
1 0.839798 12.597 0
1 0.839798 11.7572 0.839798
1 0 12.597 0.839798
1 1.6796 11.7572 0
1 2.51939 12.597 0
1 2.51939 11.7572 0.839798
1 1.6796 12.597 0.839798
1 3.35919 11.7572 0
1 4.19899 12.597 0
1 4.19899 11.7572 0.839798
1 3.35919 12.597 0.839798
1 5.03879 11.7572 0
1 5.87859 12.597 0
1 5.87859 11.7572 0.839798
1 5.03879 12.597 0.839798
1 6.71838 11.7572 0
1 7.55818 12.597 0
1 7.55818 11.7572 0.839798
1 6.71838 12.597 0.839798
1 8.39798 11.7572 0
1 9.23778 12.597 0
1 9.23778 11.7572 0.839798
1 8.39798 12.597 0.839798
1 10.0776 11.7572 0
1 10.9174 12.597 0
1 10.9174 11.7572 0.839798
1 10.0776 12.597 0.839798
1 11.7572 11.7572 0
1 12.597 12.597 0
1 12.597 11.7572 0.839798
1 11.7572 12.597 0.839798
1 13.4368 11.7572 0
1 14.2766 12.597 0
1 14.2766 11.7572 0.839798
1 13.4368 12.597 0.839798
1 15.1164 11.7572 0
1 15.9562 12.597 0
1 15.9562 11.7572 0.839798
1 15.1164 12.597 0.839798
1 0 13.4368 0
1 0.839798 14.2766 0
1 0.839798 13.4368 0.839798
1 0 14.2766 0.839798
1 1.6796 13.4368 0
1 2.51939 14.2766 0
1 2.51939 13.4368 0.839798
1 1.6796 14.2766 0.839798
1 3.35919 13.4368 0
1 4.19899 14.2766 0
1 4.19899 13.4368 0.839798
1 3.35919 14.2766 0.839798
1 5.03879 13.4368 0
1 5.87859 14.2766 0
1 5.87859 13.4368 0.839798
1 5.03879 14.2766 0.839798
1 6.71838 13.4368 0
1 7.55818 14.2766 0
1 7.55818 13.4368 0.839798
1 6.71838 14.2766 0.839798
1 8.39798 13.4368 0
1 9.23778 14.2766 0
1 9.23778 13.4368 0.839798
1 8.39798 14.2766 0.839798
1 10.0776 13.4368 0
1 10.9174 14.2766 0
1 10.9174 13.4368 0.839798
1 10.0776 14.2766 0.839798
1 11.7572 13.4368 0
1 12.597 14.2766 0
1 12.597 13.4368 0.839798
1 11.7572 14.2766 0.839798
1 13.4368 13.4368 0
1 14.2766 14.2766 0
1 14.2766 13.4368 0.839798
1 13.4368 14.2766 0.839798
1 15.1164 13.4368 0
1 15.9562 14.2766 0
1 15.9562 13.4368 0.839798
1 15.1164 14.2766 0.839798
1 0 15.1164 0
1 0.839798 15.9562 0
1 0.839798 15.1164 0.839798
1 0 15.9562 0.839798
1 1.6796 15.1164 0
1 2.51939 15.9562 0
1 2.51939 15.1164 0.839798
1 1.6796 15.9562 0.839798
1 3.35919 15.1164 0
1 4.19899 15.9562 0
1 4.19899 15.1164 0.839798
1 3.35919 15.9562 0.839798
1 5.03879 15.1164 0
1 5.87859 15.9562 0
1 5.87859 15.1164 0.839798
1 5.03879 15.9562 0.839798
1 6.71838 15.1164 0
1 7.55818 15.9562 0
1 7.55818 15.1164 0.839798
1 6.71838 15.9562 0.839798
1 8.39798 15.1164 0
1 9.23778 15.9562 0
1 9.23778 15.1164 0.839798
1 8.39798 15.9562 0.839798
1 10.0776 15.1164 0
1 10.9174 15.9562 0
1 10.9174 15.1164 0.839798
1 10.0776 15.9562 0.839798
1 11.7572 15.1164 0
1 12.597 15.9562 0
1 12.597 15.1164 0.839798
1 11.7572 15.9562 0.839798
1 13.4368 15.1164 0
1 14.2766 15.9562 0
1 14.2766 15.1164 0.839798
1 13.4368 15.9562 0.839798
1 15.1164 15.1164 0
1 15.9562 15.9562 0
1 15.9562 15.1164 0.839798
1 15.1164 15.9562 0.839798
1 0 0 1.6796
1 0.839798 0.839798 1.6796
1 0.839798 0 2.51939
1 0 0.839798 2.51939
1 1.6796 0 1.6796
1 2.51939 0.839798 1.6796
1 2.51939 0 2.51939
1 1.6796 0.839798 2.51939
1 3.35919 0 1.6796
1 4.19899 0.839798 1.6796
1 4.19899 0 2.51939
1 3.35919 0.839798 2.51939
1 5.03879 0 1.6796
1 5.87859 0.839798 1.6796
1 5.87859 0 2.51939
1 5.03879 0.839798 2.51939
1 6.71838 0 1.6796
1 7.55818 0.839798 1.6796
1 7.55818 0 2.51939
1 6.71838 0.839798 2.51939
1 8.39798 0 1.6796
1 9.23778 0.839798 1.6796
1 9.23778 0 2.51939
1 8.39798 0.839798 2.51939
1 10.0776 0 1.6796
1 10.9174 0.839798 1.6796
1 10.9174 0 2.51939
1 10.0776 0.839798 2.51939
1 11.7572 0 1.6796
1 12.597 0.839798 1.6796
1 12.597 0 2.51939
1 11.7572 0.839798 2.51939
1 13.4368 0 1.6796
1 14.2766 0.839798 1.6796
1 14.2766 0 2.51939
1 13.4368 0.839798 2.51939
1 15.1164 0 1.6796
1 15.9562 0.839798 1.6796
1 15.9562 0 2.51939
1 15.1164 0.839798 2.51939
1 0 1.6796 1.6796
1 0.839798 2.51939 1.6796
1 0.839798 1.6796 2.51939
1 0 2.51939 2.51939
1 1.6796 1.6796 1.6796
1 2.51939 2.51939 1.6796
1 2.51939 1.6796 2.51939
1 1.6796 2.51939 2.51939
1 3.35919 1.6796 1.6796
1 4.19899 2.51939 1.6796
1 4.19899 1.6796 2.51939
1 3.35919 2.51939 2.51939
1 5.03879 1.6796 1.6796
1 5.87859 2.51939 1.6796
1 5.87859 1.6796 2.51939
1 5.03879 2.51939 2.51939
1 6.71838 1.6796 1.6796
1 7.55818 2.51939 1.6796
1 7.55818 1.6796 2.51939
1 6.71838 2.51939 2.51939
1 8.39798 1.6796 1.6796
1 9.23778 2.51939 1.6796
1 9.23778 1.6796 2.51939
1 8.39798 2.51939 2.51939
1 10.0776 1.6796 1.6796
1 10.9174 2.51939 1.6796
1 10.9174 1.6796 2.51939
1 10.0776 2.51939 2.51939
1 11.7572 1.6796 1.6796
1 12.597 2.51939 1.6796
1 12.597 1.6796 2.51939
1 11.7572 2.51939 2.51939
1 13.4368 1.6796 1.6796
1 14.2766 2.51939 1.6796
1 14.2766 1.6796 2.51939
1 13.4368 2.51939 2.51939
1 15.1164 1.6796 1.6796
1 15.9562 2.51939 1.6796
1 15.9562 1.6796 2.51939
1 15.1164 2.51939 2.51939
1 0 3.35919 1.6796
1 0.839798 4.19899 1.6796
1 0.839798 3.35919 2.51939
1 0 4.19899 2.51939
1 1.6796 3.35919 1.6796
1 2.51939 4.19899 1.6796
1 2.51939 3.35919 2.51939
1 1.6796 4.19899 2.51939
1 3.35919 3.35919 1.6796
1 4.19899 4.19899 1.6796
1 4.19899 3.35919 2.51939
1 3.35919 4.19899 2.51939
1 5.03879 3.35919 1.6796
1 5.87859 4.19899 1.6796
1 5.87859 3.35919 2.51939
1 5.03879 4.19899 2.51939
1 6.71838 3.35919 1.6796
1 7.55818 4.19899 1.6796
1 7.55818 3.35919 2.51939
1 6.71838 4.19899 2.51939
1 8.39798 3.35919 1.6796
1 9.23778 4.19899 1.6796
1 9.23778 3.35919 2.51939
1 8.39798 4.19899 2.51939
1 10.0776 3.35919 1.6796
1 10.9174 4.19899 1.6796
1 10.9174 3.35919 2.51939
1 10.0776 4.19899 2.51939
1 11.7572 3.35919 1.6796
1 12.597 4.19899 1.6796
1 12.597 3.35919 2.51939
1 11.7572 4.19899 2.51939
1 13.4368 3.35919 1.6796
1 14.2766 4.19899 1.6796
1 14.2766 3.35919 2.51939
1 13.4368 4.19899 2.51939
1 15.1164 3.35919 1.6796
1 15.9562 4.19899 1.6796
1 15.9562 3.35919 2.51939
1 15.1164 4.19899 2.51939
1 0 5.03879 1.6796
1 0.839798 5.87859 1.6796
1 0.839798 5.03879 2.51939
1 0 5.87859 2.51939
1 1.6796 5.03879 1.6796
1 2.51939 5.87859 1.6796
1 2.51939 5.03879 2.51939
1 1.6796 5.87859 2.51939
1 3.35919 5.03879 1.6796
1 4.19899 5.87859 1.6796
1 4.19899 5.03879 2.51939
1 3.35919 5.87859 2.51939
1 5.03879 5.03879 1.6796
1 5.87859 5.87859 1.6796
1 5.87859 5.03879 2.51939
1 5.03879 5.87859 2.51939
1 6.71838 5.03879 1.6796
1 7.55818 5.87859 1.6796
1 7.55818 5.03879 2.51939
1 6.71838 5.87859 2.51939
1 8.39798 5.03879 1.6796
1 9.23778 5.87859 1.6796
1 9.23778 5.03879 2.51939
1 8.39798 5.87859 2.51939
1 10.0776 5.03879 1.6796
1 10.9174 5.87859 1.6796
1 10.9174 5.03879 2.51939
1 10.0776 5.87859 2.51939
1 11.7572 5.03879 1.6796
1 12.597 5.87859 1.6796
1 12.597 5.03879 2.51939
1 11.7572 5.87859 2.51939
1 13.4368 5.03879 1.6796
1 14.2766 5.87859 1.6796
1 14.2766 5.03879 2.51939
1 13.4368 5.87859 2.51939
1 15.1164 5.03879 1.6796
1 15.9562 5.87859 1.6796
1 15.9562 5.03879 2.51939
1 15.1164 5.87859 2.51939
1 0 6.71838 1.6796
1 0.839798 7.55818 1.6796
1 0.839798 6.71838 2.51939
1 0 7.55818 2.51939
1 1.6796 6.71838 1.6796
1 2.51939 7.55818 1.6796
1 2.51939 6.71838 2.51939
1 1.6796 7.55818 2.51939
1 3.35919 6.71838 1.6796
1 4.19899 7.55818 1.6796
1 4.19899 6.71838 2.51939
1 3.35919 7.55818 2.51939
1 5.03879 6.71838 1.6796
1 5.87859 7.55818 1.6796
1 5.87859 6.71838 2.51939
1 5.03879 7.55818 2.51939
1 6.71838 6.71838 1.6796
1 7.55818 7.55818 1.6796
1 7.55818 6.71838 2.51939
1 6.71838 7.55818 2.51939
1 8.39798 6.71838 1.6796
1 9.23778 7.55818 1.6796
1 9.23778 6.71838 2.51939
1 8.39798 7.55818 2.51939
1 10.0776 6.71838 1.6796
1 10.9174 7.55818 1.6796
1 10.9174 6.71838 2.51939
1 10.0776 7.55818 2.51939
1 11.7572 6.71838 1.6796
1 12.597 7.55818 1.6796
1 12.597 6.71838 2.51939
1 11.7572 7.55818 2.51939
1 13.4368 6.71838 1.6796
1 14.2766 7.55818 1.6796
1 14.2766 6.71838 2.51939
1 13.4368 7.55818 2.51939
1 15.1164 6.71838 1.6796
1 15.9562 7.55818 1.6796
1 15.9562 6.71838 2.51939
1 15.1164 7.55818 2.51939
1 0 8.39798 1.6796
1 0.839798 9.23778 1.6796
1 0.839798 8.39798 2.51939
1 0 9.23778 2.51939
1 1.6796 8.39798 1.6796
1 2.51939 9.23778 1.6796
1 2.51939 8.39798 2.51939
1 1.6796 9.23778 2.51939
1 3.35919 8.39798 1.6796
1 4.19899 9.23778 1.6796
1 4.19899 8.39798 2.51939
1 3.35919 9.23778 2.51939
1 5.03879 8.39798 1.6796
1 5.87859 9.23778 1.6796
1 5.87859 8.39798 2.51939
1 5.03879 9.23778 2.51939
1 6.71838 8.39798 1.6796
1 7.55818 9.23778 1.6796
1 7.55818 8.39798 2.51939
1 6.71838 9.23778 2.51939
1 8.39798 8.39798 1.6796
1 9.23778 9.23778 1.6796
1 9.23778 8.39798 2.51939
1 8.39798 9.23778 2.51939
1 10.0776 8.39798 1.6796
1 10.9174 9.23778 1.6796
1 10.9174 8.39798 2.51939
1 10.0776 9.23778 2.51939
1 11.7572 8.39798 1.6796
1 12.597 9.23778 1.6796
1 12.597 8.39798 2.51939
1 11.7572 9.23778 2.51939
1 13.4368 8.39798 1.6796
1 14.2766 9.23778 1.6796
1 14.2766 8.39798 2.51939
1 13.4368 9.23778 2.51939
1 15.1164 8.39798 1.6796
1 15.9562 9.23778 1.6796
1 15.9562 8.39798 2.51939
1 15.1164 9.23778 2.51939
1 0 10.0776 1.6796
1 0.839798 10.9174 1.6796
1 0.839798 10.0776 2.51939
1 0 10.9174 2.51939
1 1.6796 10.0776 1.6796
1 2.51939 10.9174 1.6796
1 2.51939 10.0776 2.51939
1 1.6796 10.9174 2.51939
1 3.35919 10.0776 1.6796
1 4.19899 10.9174 1.6796
1 4.19899 10.0776 2.51939
1 3.35919 10.9174 2.51939
1 5.03879 10.0776 1.6796
1 5.87859 10.9174 1.6796
1 5.87859 10.0776 2.51939
1 5.03879 10.9174 2.51939
1 6.71838 10.0776 1.6796
1 7.55818 10.9174 1.6796
1 7.55818 10.0776 2.51939
1 6.71838 10.9174 2.51939
1 8.39798 10.0776 1.6796
1 9.23778 10.9174 1.6796
1 9.23778 10.0776 2.51939
1 8.39798 10.9174 2.51939
1 10.0776 10.0776 1.6796
1 10.9174 10.9174 1.6796
1 10.9174 10.0776 2.51939
1 10.0776 10.9174 2.51939
1 11.7572 10.0776 1.6796
1 12.597 10.9174 1.6796
1 12.597 10.0776 2.51939
1 11.7572 10.9174 2.51939
1 13.4368 10.0776 1.6796
1 14.2766 10.9174 1.6796
1 14.2766 10.0776 2.51939
1 13.4368 10.9174 2.51939
1 15.1164 10.0776 1.6796
1 15.9562 10.9174 1.6796
1 15.9562 10.0776 2.51939
1 15.1164 10.9174 2.51939
1 0 11.7572 1.6796
1 0.839798 12.597 1.6796
1 0.839798 11.7572 2.51939
1 0 12.597 2.51939
1 1.6796 11.7572 1.6796
1 2.51939 12.597 1.6796
1 2.51939 11.7572 2.51939
1 1.6796 12.597 2.51939
1 3.35919 11.7572 1.6796
1 4.19899 12.597 1.6796
1 4.19899 11.7572 2.51939
1 3.35919 12.597 2.51939
1 5.03879 11.7572 1.6796
1 5.87859 12.597 1.6796
1 5.87859 11.7572 2.51939
1 5.03879 12.597 2.51939
1 6.71838 11.7572 1.6796
1 7.55818 12.597 1.6796
1 7.55818 11.7572 2.51939
1 6.71838 12.597 2.51939
1 8.39798 11.7572 1.6796
1 9.23778 12.597 1.6796
1 9.23778 11.7572 2.51939
1 8.39798 12.597 2.51939
1 10.0776 11.7572 1.6796
1 10.9174 12.597 1.6796
1 10.9174 11.7572 2.51939
1 10.0776 12.597 2.51939
1 11.7572 11.7572 1.6796
1 12.597 12.597 1.6796
1 12.597 11.7572 2.51939
1 11.7572 12.597 2.51939
1 13.4368 11.7572 1.6796
1 14.2766 12.597 1.6796
1 14.2766 11.7572 2.51939
1 13.4368 12.597 2.51939
1 15.1164 11.7572 1.6796
1 15.9562 12.597 1.6796
1 15.9562 11.7572 2.51939
1 15.1164 12.597 2.51939
1 0 13.4368 1.6796
1 0.839798 14.2766 1.6796
1 0.839798 13.4368 2.51939
1 0 14.2766 2.51939
1 1.6796 13.4368 1.6796
1 2.51939 14.2766 1.6796
1 2.51939 13.4368 2.51939
1 1.6796 14.2766 2.51939
1 3.35919 13.4368 1.6796
1 4.19899 14.2766 1.6796
1 4.19899 13.4368 2.51939
1 3.35919 14.2766 2.51939
1 5.03879 13.4368 1.6796
1 5.87859 14.2766 1.6796
1 5.87859 13.4368 2.51939
1 5.03879 14.2766 2.51939
1 6.71838 13.4368 1.6796
1 7.55818 14.2766 1.6796
1 7.55818 13.4368 2.51939
1 6.71838 14.2766 2.51939
1 8.39798 13.4368 1.6796
1 9.23778 14.2766 1.6796
1 9.23778 13.4368 2.51939
1 8.39798 14.2766 2.51939
1 10.0776 13.4368 1.6796
1 10.9174 14.2766 1.6796
1 10.9174 13.4368 2.51939
1 10.0776 14.2766 2.51939
1 11.7572 13.4368 1.6796
1 12.597 14.2766 1.6796
1 12.597 13.4368 2.51939
1 11.7572 14.2766 2.51939
1 13.4368 13.4368 1.6796
1 14.2766 14.2766 1.6796
1 14.2766 13.4368 2.51939
1 13.4368 14.2766 2.51939
1 15.1164 13.4368 1.6796
1 15.9562 14.2766 1.6796
1 15.9562 13.4368 2.51939
1 15.1164 14.2766 2.51939
1 0 15.1164 1.6796
1 0.839798 15.9562 1.6796
1 0.839798 15.1164 2.51939
1 0 15.9562 2.51939
1 1.6796 15.1164 1.6796
1 2.51939 15.9562 1.6796
1 2.51939 15.1164 2.51939
1 1.6796 15.9562 2.51939
1 3.35919 15.1164 1.6796
1 4.19899 15.9562 1.6796
1 4.19899 15.1164 2.51939
1 3.35919 15.9562 2.51939
1 5.03879 15.1164 1.6796
1 5.87859 15.9562 1.6796
1 5.87859 15.1164 2.51939
1 5.03879 15.9562 2.51939
1 6.71838 15.1164 1.6796
1 7.55818 15.9562 1.6796
1 7.55818 15.1164 2.51939
1 6.71838 15.9562 2.51939
1 8.39798 15.1164 1.6796
1 9.23778 15.9562 1.6796
1 9.23778 15.1164 2.51939
1 8.39798 15.9562 2.51939
1 10.0776 15.1164 1.6796
1 10.9174 15.9562 1.6796
1 10.9174 15.1164 2.51939
1 10.0776 15.9562 2.51939
1 11.7572 15.1164 1.6796
1 12.597 15.9562 1.6796
1 12.597 15.1164 2.51939
1 11.7572 15.9562 2.51939
1 13.4368 15.1164 1.6796
1 14.2766 15.9562 1.6796
1 14.2766 15.1164 2.51939
1 13.4368 15.9562 2.51939
1 15.1164 15.1164 1.6796
1 15.9562 15.9562 1.6796
1 15.9562 15.1164 2.51939
1 15.1164 15.9562 2.51939
1 0 0 3.35919
1 0.839798 0.839798 3.35919
1 0.839798 0 4.19899
1 0 0.839798 4.19899
1 1.6796 0 3.35919
1 2.51939 0.839798 3.35919
1 2.51939 0 4.19899
1 1.6796 0.839798 4.19899
1 3.35919 0 3.35919
1 4.19899 0.839798 3.35919
1 4.19899 0 4.19899
1 3.35919 0.839798 4.19899
1 5.03879 0 3.35919
1 5.87859 0.839798 3.35919
1 5.87859 0 4.19899
1 5.03879 0.839798 4.19899
1 6.71838 0 3.35919
1 7.55818 0.839798 3.35919
1 7.55818 0 4.19899
1 6.71838 0.839798 4.19899
1 8.39798 0 3.35919
1 9.23778 0.839798 3.35919
1 9.23778 0 4.19899
1 8.39798 0.839798 4.19899
1 10.0776 0 3.35919
1 10.9174 0.839798 3.35919
1 10.9174 0 4.19899
1 10.0776 0.839798 4.19899
1 11.7572 0 3.35919
1 12.597 0.839798 3.35919
1 12.597 0 4.19899
1 11.7572 0.839798 4.19899
1 13.4368 0 3.35919
1 14.2766 0.839798 3.35919
1 14.2766 0 4.19899
1 13.4368 0.839798 4.19899
1 15.1164 0 3.35919
1 15.9562 0.839798 3.35919
1 15.9562 0 4.19899
1 15.1164 0.839798 4.19899
1 0 1.6796 3.35919
1 0.839798 2.51939 3.35919
1 0.839798 1.6796 4.19899
1 0 2.51939 4.19899
1 1.6796 1.6796 3.35919
1 2.51939 2.51939 3.35919
1 2.51939 1.6796 4.19899
1 1.6796 2.51939 4.19899
1 3.35919 1.6796 3.35919
1 4.19899 2.51939 3.35919
1 4.19899 1.6796 4.19899
1 3.35919 2.51939 4.19899
1 5.03879 1.6796 3.35919
1 5.87859 2.51939 3.35919
1 5.87859 1.6796 4.19899
1 5.03879 2.51939 4.19899
1 6.71838 1.6796 3.35919
1 7.55818 2.51939 3.35919
1 7.55818 1.6796 4.19899
1 6.71838 2.51939 4.19899
1 8.39798 1.6796 3.35919
1 9.23778 2.51939 3.35919
1 9.23778 1.6796 4.19899
1 8.39798 2.51939 4.19899
1 10.0776 1.6796 3.35919
1 10.9174 2.51939 3.35919
1 10.9174 1.6796 4.19899
1 10.0776 2.51939 4.19899
1 11.7572 1.6796 3.35919
1 12.597 2.51939 3.35919
1 12.597 1.6796 4.19899
1 11.7572 2.51939 4.19899
1 13.4368 1.6796 3.35919
1 14.2766 2.51939 3.35919
1 14.2766 1.6796 4.19899
1 13.4368 2.51939 4.19899
1 15.1164 1.6796 3.35919
1 15.9562 2.51939 3.35919
1 15.9562 1.6796 4.19899
1 15.1164 2.51939 4.19899
1 0 3.35919 3.35919
1 0.839798 4.19899 3.35919
1 0.839798 3.35919 4.19899
1 0 4.19899 4.19899
1 1.6796 3.35919 3.35919
1 2.51939 4.19899 3.35919
1 2.51939 3.35919 4.19899
1 1.6796 4.19899 4.19899
1 3.35919 3.35919 3.35919
1 4.19899 4.19899 3.35919
1 4.19899 3.35919 4.19899
1 3.35919 4.19899 4.19899
1 5.03879 3.35919 3.35919
1 5.87859 4.19899 3.35919
1 5.87859 3.35919 4.19899
1 5.03879 4.19899 4.19899
1 6.71838 3.35919 3.35919
1 7.55818 4.19899 3.35919
1 7.55818 3.35919 4.19899
1 6.71838 4.19899 4.19899
1 8.39798 3.35919 3.35919
1 9.23778 4.19899 3.35919
1 9.23778 3.35919 4.19899
1 8.39798 4.19899 4.19899
1 10.0776 3.35919 3.35919
1 10.9174 4.19899 3.35919
1 10.9174 3.35919 4.19899
1 10.0776 4.19899 4.19899
1 11.7572 3.35919 3.35919
1 12.597 4.19899 3.35919
1 12.597 3.35919 4.19899
1 11.7572 4.19899 4.19899
1 13.4368 3.35919 3.35919
1 14.2766 4.19899 3.35919
1 14.2766 3.35919 4.19899
1 13.4368 4.19899 4.19899
1 15.1164 3.35919 3.35919
1 15.9562 4.19899 3.35919
1 15.9562 3.35919 4.19899
1 15.1164 4.19899 4.19899
1 0 5.03879 3.35919
1 0.839798 5.87859 3.35919
1 0.839798 5.03879 4.19899
1 0 5.87859 4.19899
1 1.6796 5.03879 3.35919
1 2.51939 5.87859 3.35919
1 2.51939 5.03879 4.19899
1 1.6796 5.87859 4.19899
1 3.35919 5.03879 3.35919
1 4.19899 5.87859 3.35919
1 4.19899 5.03879 4.19899
1 3.35919 5.87859 4.19899
1 5.03879 5.03879 3.35919
1 5.87859 5.87859 3.35919
1 5.87859 5.03879 4.19899
1 5.03879 5.87859 4.19899
1 6.71838 5.03879 3.35919
1 7.55818 5.87859 3.35919
1 7.55818 5.03879 4.19899
1 6.71838 5.87859 4.19899
1 8.39798 5.03879 3.35919
1 9.23778 5.87859 3.35919
1 9.23778 5.03879 4.19899
1 8.39798 5.87859 4.19899
1 10.0776 5.03879 3.35919
1 10.9174 5.87859 3.35919
1 10.9174 5.03879 4.19899
1 10.0776 5.87859 4.19899
1 11.7572 5.03879 3.35919
1 12.597 5.87859 3.35919
1 12.597 5.03879 4.19899
1 11.7572 5.87859 4.19899
1 13.4368 5.03879 3.35919
1 14.2766 5.87859 3.35919
1 14.2766 5.03879 4.19899
1 13.4368 5.87859 4.19899
1 15.1164 5.03879 3.35919
1 15.9562 5.87859 3.35919
1 15.9562 5.03879 4.19899
1 15.1164 5.87859 4.19899
1 0 6.71838 3.35919
1 0.839798 7.55818 3.35919
1 0.839798 6.71838 4.19899
1 0 7.55818 4.19899
1 1.6796 6.71838 3.35919
1 2.51939 7.55818 3.35919
1 2.51939 6.71838 4.19899
1 1.6796 7.55818 4.19899
1 3.35919 6.71838 3.35919
1 4.19899 7.55818 3.35919
1 4.19899 6.71838 4.19899
1 3.35919 7.55818 4.19899
1 5.03879 6.71838 3.35919
1 5.87859 7.55818 3.35919
1 5.87859 6.71838 4.19899
1 5.03879 7.55818 4.19899
1 6.71838 6.71838 3.35919
1 7.55818 7.55818 3.35919
1 7.55818 6.71838 4.19899
1 6.71838 7.55818 4.19899
1 8.39798 6.71838 3.35919
1 9.23778 7.55818 3.35919
1 9.23778 6.71838 4.19899
1 8.39798 7.55818 4.19899
1 10.0776 6.71838 3.35919
1 10.9174 7.55818 3.35919
1 10.9174 6.71838 4.19899
1 10.0776 7.55818 4.19899
1 11.7572 6.71838 3.35919
1 12.597 7.55818 3.35919
1 12.597 6.71838 4.19899
1 11.7572 7.55818 4.19899
1 13.4368 6.71838 3.35919
1 14.2766 7.55818 3.35919
1 14.2766 6.71838 4.19899
1 13.4368 7.55818 4.19899
1 15.1164 6.71838 3.35919
1 15.9562 7.55818 3.35919
1 15.9562 6.71838 4.19899
1 15.1164 7.55818 4.19899
1 0 8.39798 3.35919
1 0.839798 9.23778 3.35919
1 0.839798 8.39798 4.19899
1 0 9.23778 4.19899
1 1.6796 8.39798 3.35919
1 2.51939 9.23778 3.35919
1 2.51939 8.39798 4.19899
1 1.6796 9.23778 4.19899
1 3.35919 8.39798 3.35919
1 4.19899 9.23778 3.35919
1 4.19899 8.39798 4.19899
1 3.35919 9.23778 4.19899
1 5.03879 8.39798 3.35919
1 5.87859 9.23778 3.35919
1 5.87859 8.39798 4.19899
1 5.03879 9.23778 4.19899
1 6.71838 8.39798 3.35919
1 7.55818 9.23778 3.35919
1 7.55818 8.39798 4.19899
1 6.71838 9.23778 4.19899
1 8.39798 8.39798 3.35919
1 9.23778 9.23778 3.35919
1 9.23778 8.39798 4.19899
1 8.39798 9.23778 4.19899
1 10.0776 8.39798 3.35919
1 10.9174 9.23778 3.35919
1 10.9174 8.39798 4.19899
1 10.0776 9.23778 4.19899
1 11.7572 8.39798 3.35919
1 12.597 9.23778 3.35919
1 12.597 8.39798 4.19899
1 11.7572 9.23778 4.19899
1 13.4368 8.39798 3.35919
1 14.2766 9.23778 3.35919
1 14.2766 8.39798 4.19899
1 13.4368 9.23778 4.19899
1 15.1164 8.39798 3.35919
1 15.9562 9.23778 3.35919
1 15.9562 8.39798 4.19899
1 15.1164 9.23778 4.19899
1 0 10.0776 3.35919
1 0.839798 10.9174 3.35919
1 0.839798 10.0776 4.19899
1 0 10.9174 4.19899
1 1.6796 10.0776 3.35919
1 2.51939 10.9174 3.35919
1 2.51939 10.0776 4.19899
1 1.6796 10.9174 4.19899
1 3.35919 10.0776 3.35919
1 4.19899 10.9174 3.35919
1 4.19899 10.0776 4.19899
1 3.35919 10.9174 4.19899
1 5.03879 10.0776 3.35919
1 5.87859 10.9174 3.35919
1 5.87859 10.0776 4.19899
1 5.03879 10.9174 4.19899
1 6.71838 10.0776 3.35919
1 7.55818 10.9174 3.35919
1 7.55818 10.0776 4.19899
1 6.71838 10.9174 4.19899
1 8.39798 10.0776 3.35919
1 9.23778 10.9174 3.35919
1 9.23778 10.0776 4.19899
1 8.39798 10.9174 4.19899
1 10.0776 10.0776 3.35919
1 10.9174 10.9174 3.35919
1 10.9174 10.0776 4.19899
1 10.0776 10.9174 4.19899
1 11.7572 10.0776 3.35919
1 12.597 10.9174 3.35919
1 12.597 10.0776 4.19899
1 11.7572 10.9174 4.19899
1 13.4368 10.0776 3.35919
1 14.2766 10.9174 3.35919
1 14.2766 10.0776 4.19899
1 13.4368 10.9174 4.19899
1 15.1164 10.0776 3.35919
1 15.9562 10.9174 3.35919
1 15.9562 10.0776 4.19899
1 15.1164 10.9174 4.19899
1 0 11.7572 3.35919
1 0.839798 12.597 3.35919
1 0.839798 11.7572 4.19899
1 0 12.597 4.19899
1 1.6796 11.7572 3.35919
1 2.51939 12.597 3.35919
1 2.51939 11.7572 4.19899
1 1.6796 12.597 4.19899
1 3.35919 11.7572 3.35919
1 4.19899 12.597 3.35919
1 4.19899 11.7572 4.19899
1 3.35919 12.597 4.19899
1 5.03879 11.7572 3.35919
1 5.87859 12.597 3.35919
1 5.87859 11.7572 4.19899
1 5.03879 12.597 4.19899
1 6.71838 11.7572 3.35919
1 7.55818 12.597 3.35919
1 7.55818 11.7572 4.19899
1 6.71838 12.597 4.19899
1 8.39798 11.7572 3.35919
1 9.23778 12.597 3.35919
1 9.23778 11.7572 4.19899
1 8.39798 12.597 4.19899
1 10.0776 11.7572 3.35919
1 10.9174 12.597 3.35919
1 10.9174 11.7572 4.19899
1 10.0776 12.597 4.19899
1 11.7572 11.7572 3.35919
1 12.597 12.597 3.35919
1 12.597 11.7572 4.19899
1 11.7572 12.597 4.19899
1 13.4368 11.7572 3.35919
1 14.2766 12.597 3.35919
1 14.2766 11.7572 4.19899
1 13.4368 12.597 4.19899
1 15.1164 11.7572 3.35919
1 15.9562 12.597 3.35919
1 15.9562 11.7572 4.19899
1 15.1164 12.597 4.19899
1 0 13.4368 3.35919
1 0.839798 14.2766 3.35919
1 0.839798 13.4368 4.19899
1 0 14.2766 4.19899
1 1.6796 13.4368 3.35919
1 2.51939 14.2766 3.35919
1 2.51939 13.4368 4.19899
1 1.6796 14.2766 4.19899
1 3.35919 13.4368 3.35919
1 4.19899 14.2766 3.35919
1 4.19899 13.4368 4.19899
1 3.35919 14.2766 4.19899
1 5.03879 13.4368 3.35919
1 5.87859 14.2766 3.35919
1 5.87859 13.4368 4.19899
1 5.03879 14.2766 4.19899
1 6.71838 13.4368 3.35919
1 7.55818 14.2766 3.35919
1 7.55818 13.4368 4.19899
1 6.71838 14.2766 4.19899
1 8.39798 13.4368 3.35919
1 9.23778 14.2766 3.35919
1 9.23778 13.4368 4.19899
1 8.39798 14.2766 4.19899
1 10.0776 13.4368 3.35919
1 10.9174 14.2766 3.35919
1 10.9174 13.4368 4.19899
1 10.0776 14.2766 4.19899
1 11.7572 13.4368 3.35919
1 12.597 14.2766 3.35919
1 12.597 13.4368 4.19899
1 11.7572 14.2766 4.19899
1 13.4368 13.4368 3.35919
1 14.2766 14.2766 3.35919
1 14.2766 13.4368 4.19899
1 13.4368 14.2766 4.19899
1 15.1164 13.4368 3.35919
1 15.9562 14.2766 3.35919
1 15.9562 13.4368 4.19899
1 15.1164 14.2766 4.19899
1 0 15.1164 3.35919
1 0.839798 15.9562 3.35919
1 0.839798 15.1164 4.19899
1 0 15.9562 4.19899
1 1.6796 15.1164 3.35919
1 2.51939 15.9562 3.35919
1 2.51939 15.1164 4.19899
1 1.6796 15.9562 4.19899
1 3.35919 15.1164 3.35919
1 4.19899 15.9562 3.35919
1 4.19899 15.1164 4.19899
1 3.35919 15.9562 4.19899
1 5.03879 15.1164 3.35919
1 5.87859 15.9562 3.35919
1 5.87859 15.1164 4.19899
1 5.03879 15.9562 4.19899
1 6.71838 15.1164 3.35919
1 7.55818 15.9562 3.35919
1 7.55818 15.1164 4.19899
1 6.71838 15.9562 4.19899
1 8.39798 15.1164 3.35919
1 9.23778 15.9562 3.35919
1 9.23778 15.1164 4.19899
1 8.39798 15.9562 4.19899
1 10.0776 15.1164 3.35919
1 10.9174 15.9562 3.35919
1 10.9174 15.1164 4.19899
1 10.0776 15.9562 4.19899
1 11.7572 15.1164 3.35919
1 12.597 15.9562 3.35919
1 12.597 15.1164 4.19899
1 11.7572 15.9562 4.19899
1 13.4368 15.1164 3.35919
1 14.2766 15.9562 3.35919
1 14.2766 15.1164 4.19899
1 13.4368 15.9562 4.19899
1 15.1164 15.1164 3.35919
1 15.9562 15.9562 3.35919
1 15.9562 15.1164 4.19899
1 15.1164 15.9562 4.19899
1 0 0 5.03879
1 0.839798 0.839798 5.03879
1 0.839798 0 5.87859
1 0 0.839798 5.87859
1 1.6796 0 5.03879
1 2.51939 0.839798 5.03879
1 2.51939 0 5.87859
1 1.6796 0.839798 5.87859
1 3.35919 0 5.03879
1 4.19899 0.839798 5.03879
1 4.19899 0 5.87859
1 3.35919 0.839798 5.87859
1 5.03879 0 5.03879
1 5.87859 0.839798 5.03879
1 5.87859 0 5.87859
1 5.03879 0.839798 5.87859
1 6.71838 0 5.03879
1 7.55818 0.839798 5.03879
1 7.55818 0 5.87859
1 6.71838 0.839798 5.87859
1 8.39798 0 5.03879
1 9.23778 0.839798 5.03879
1 9.23778 0 5.87859
1 8.39798 0.839798 5.87859
1 10.0776 0 5.03879
1 10.9174 0.839798 5.03879
1 10.9174 0 5.87859
1 10.0776 0.839798 5.87859
1 11.7572 0 5.03879
1 12.597 0.839798 5.03879
1 12.597 0 5.87859
1 11.7572 0.839798 5.87859
1 13.4368 0 5.03879
1 14.2766 0.839798 5.03879
1 14.2766 0 5.87859