ITEM: TIMESTEP
0
ITEM: NUMBER OF ATOMS
4000
ITEM: BOX BOUNDS pp pp pp
0.0000000000000000e+00 1.6795961913825074e+01
0.0000000000000000e+00 1.6795961913825074e+01
0.0000000000000000e+00 1.6795961913825074e+01
ITEM: ATOMS id type x y z
1 1 0 0 0
2 1 0.839798 0.839798 0
3 1 0.839798 0 0.839798
4 1 0 0.839798 0.839798
5 1 1.6796 0 0
6 1 2.51939 0.839798 0
7 1 2.51939 0 0.839798
8 1 1.6796 0.839798 0.839798
9 1 3.35919 0 0
10 1 4.19899 0.839798 0
11 1 4.19899 0 0.839798
12 1 3.35919 0.839798 0.839798
13 1 5.03879 0 0
14 1 5.87859 0.839798 0
15 1 5.87859 0 0.839798
16 1 5.03879 0.839798 0.839798
17 1 6.71838 0 0
18 1 7.55818 0.839798 0
19 1 7.55818 0 0.839798
20 1 6.71838 0.839798 0.839798
21 1 8.39798 0 0
24 1 8.39798 0.839798 0.839798
22 1 9.23778 0.839798 0
23 1 9.23778 0 0.839798
25 1 10.0776 0 0
28 1 10.0776 0.839798 0.839798
26 1 10.9174 0.839798 0
27 1 10.9174 0 0.839798
29 1 11.7572 0 0
32 1 11.7572 0.839798 0.839798
30 1 12.597 0.839798 0
31 1 12.597 0 0.839798
33 1 13.4368 0 0
36 1 13.4368 0.839798 0.839798
34 1 14.2766 0.839798 0
35 1 14.2766 0 0.839798
37 1 15.1164 0 0
40 1 15.1164 0.839798 0.839798
38 1 15.9562 0.839798 0
39 1 15.9562 0 0.839798
41 1 0 1.6796 0
42 1 0.839798 2.51939 0
43 1 0.839798 1.6796 0.839798
44 1 0 2.51939 0.839798
45 1 1.6796 1.6796 0
46 1 2.51939 2.51939 0
47 1 2.51939 1.6796 0.839798
48 1 1.6796 2.51939 0.839798
49 1 3.35919 1.6796 0
50 1 4.19899 2.51939 0
51 1 4.19899 1.6796 0.839798
52 1 3.35919 2.51939 0.839798
53 1 5.03879 1.6796 0
54 1 5.87859 2.51939 0
55 1 5.87859 1.6796 0.839798
56 1 5.03879 2.51939 0.839798
57 1 6.71838 1.6796 0
58 1 7.55818 2.51939 0
59 1 7.55818 1.6796 0.839798
60 1 6.71838 2.51939 0.839798
61 1 8.39798 1.6796 0
64 1 8.39798 2.51939 0.839798
62 1 9.23778 2.51939 0
63 1 9.23778 1.6796 0.839798
65 1 10.0776 1.6796 0
68 1 10.0776 2.51939 0.839798
66 1 10.9174 2.51939 0
67 1 10.9174 1.6796 0.839798
69 1 11.7572 1.6796 0
72 1 11.7572 2.51939 0.839798
70 1 12.597 2.51939 0
71 1 12.597 1.6796 0.839798
73 1 13.4368 1.6796 0
76 1 13.4368 2.51939 0.839798
74 1 14.2766 2.51939 0
75 1 14.2766 1.6796 0.839798
77 1 15.1164 1.6796 0
80 1 15.1164 2.51939 0.839798
78 1 15.9562 2.51939 0
79 1 15.9562 1.6796 0.839798
81 1 0 3.35919 0
82 1 0.839798 4.19899 0
83 1 0.839798 3.35919 0.839798
84 1 0 4.19899 0.839798
85 1 1.6796 3.35919 0
86 1 2.51939 4.19899 0
87 1 2.51939 3.35919 0.839798
88 1 1.6796 4.19899 0.839798
89 1 3.35919 3.35919 0
90 1 4.19899 4.19899 0
91 1 4.19899 3.35919 0.839798
92 1 3.35919 4.19899 0.839798
93 1 5.03879 3.35919 0
94 1 5.87859 4.19899 0
95 1 5.87859 3.35919 0.839798
96 1 5.03879 4.19899 0.839798
97 1 6.71838 3.35919 0
98 1 7.55818 4.19899 0
99 1 7.55818 3.35919 0.839798
100 1 6.71838 4.19899 0.839798
101 1 8.39798 3.35919 0
104 1 8.39798 4.19899 0.839798
102 1 9.23778 4.19899 0
103 1 9.23778 3.35919 0.839798
105 1 10.0776 3.35919 0
108 1 10.0776 4.19899 0.839798
106 1 10.9174 4.19899 0
107 1 10.9174 3.35919 0.839798
109 1 11.7572 3.35919 0
112 1 11.7572 4.19899 0.839798
110 1 12.597 4.19899 0
111 1 12.597 3.35919 0.839798
113 1 13.4368 3.35919 0
116 1 13.4368 4.19899 0.839798
114 1 14.2766 4.19899 0
115 1 14.2766 3.35919 0.839798
117 1 15.1164 3.35919 0
120 1 15.1164 4.19899 0.839798
118 1 15.9562 4.19899 0
119 1 15.9562 3.35919 0.839798
121 1 0 5.03879 0
122 1 0.839798 5.87859 0
123 1 0.839798 5.03879 0.839798
124 1 0 5.87859 0.839798
125 1 1.6796 5.03879 0
126 1 2.51939 5.87859 0
127 1 2.51939 5.03879 0.839798
128 1 1.6796 5.87859 0.839798
129 1 3.35919 5.03879 0
130 1 4.19899 5.87859 0
131 1 4.19899 5.03879 0.839798
132 1 3.35919 5.87859 0.839798
133 1 5.03879 5.03879 0
134 1 5.87859 5.87859 0
135 1 5.87859 5.03879 0.839798
136 1 5.03879 5.87859 0.839798
137 1 6.71838 5.03879 0
138 1 7.55818 5.87859 0
139 1 7.55818 5.03879 0.839798
140 1 6.71838 5.87859 0.839798
141 1 8.39798 5.03879 0
144 1 8.39798 5.87859 0.839798
142 1 9.23778 5.87859 0
143 1 9.23778 5.03879 0.839798
145 1 10.0776 5.03879 0
148 1 10.0776 5.87859 0.839798
146 1 10.9174 5.87859 0
147 1 10.9174 5.03879 0.839798
149 1 11.7572 5.03879 0
152 1 11.7572 5.87859 0.839798
150 1 12.597 5.87859 0
151 1 12.597 5.03879 0.839798
153 1 13.4368 5.03879 0
156 1 13.4368 5.87859 0.839798
154 1 14.2766 5.87859 0
155 1 14.2766 5.03879 0.839798
157 1 15.1164 5.03879 0
160 1 15.1164 5.87859 0.839798
158 1 15.9562 5.87859 0
159 1 15.9562 5.03879 0.839798
161 1 0 6.71838 0
162 1 0.839798 7.55818 0
163 1 0.839798 6.71838 0.839798
164 1 0 7.55818 0.839798
165 1 1.6796 6.71838 0
166 1 2.51939 7.55818 0
167 1 2.51939 6.71838 0.839798
168 1 1.6796 7.55818 0.839798
169 1 3.35919 6.71838 0
170 1 4.19899 7.55818 0
171 1 4.19899 6.71838 0.839798
172 1 3.35919 7.55818 0.839798
173 1 5.03879 6.71838 0
174 1 5.87859 7.55818 0
175 1 5.87859 6.71838 0.839798
176 1 5.03879 7.55818 0.839798
177 1 6.71838 6.71838 0
178 1 7.55818 7.55818 0
179 1 7.55818 6.71838 0.839798
180 1 6.71838 7.55818 0.839798
181 1 8.39798 6.71838 0
184 1 8.39798 7.55818 0.839798
182 1 9.23778 7.55818 0
183 1 9.23778 6.71838 0.839798
185 1 10.0776 6.71838 0
188 1 10.0776 7.55818 0.839798
186 1 10.9174 7.55818 0
187 1 10.9174 6.71838 0.839798
189 1 11.7572 6.71838 0
192 1 11.7572 7.55818 0.839798
190 1 12.597 7.55818 0
191 1 12.597 6.71838 0.839798
193 1 13.4368 6.71838 0
196 1 13.4368 7.55818 0.839798
194 1 14.2766 7.55818 0
195 1 14.2766 6.71838 0.839798
197 1 15.1164 6.71838 0
200 1 15.1164 7.55818 0.839798
198 1 15.9562 7.55818 0
199 1 15.9562 6.71838 0.839798
201 1 0 8.39798 0
203 1 0.839798 8.39798 0.839798
205 1 1.6796 8.39798 0
207 1 2.51939 8.39798 0.839798
209 1 3.35919 8.39798 0
211 1 4.19899 8.39798 0.839798
213 1 5.03879 8.39798 0
215 1 5.87859 8.39798 0.839798
217 1 6.71838 8.39798 0
219 1 7.55818 8.39798 0.839798
221 1 8.39798 8.39798 0
223 1 9.23778 8.39798 0.839798
225 1 10.0776 8.39798 0
227 1 10.9174 8.39798 0.839798
229 1 11.7572 8.39798 0
231 1 12.597 8.39798 0.839798
233 1 13.4368 8.39798 0
235 1 14.2766 8.39798 0.839798
237 1 15.1164 8.39798 0
239 1 15.9562 8.39798 0.839798
202 1 0.839798 9.23778 0
204 1 0 9.23778 0.839798
241 1 0 10.0776 0
243 1 0.839798 10.0776 0.839798
206 1 2.51939 9.23778 0
208 1 1.6796 9.23778 0.839798
245 1 1.6796 10.0776 0
247 1 2.51939 10.0776 0.839798
210 1 4.19899 9.23778 0
212 1 3.35919 9.23778 0.839798
249 1 3.35919 10.0776 0
251 1 4.19899 10.0776 0.839798
214 1 5.87859 9.23778 0
216 1 5.03879 9.23778 0.839798
253 1 5.03879 10.0776 0
255 1 5.87859 10.0776 0.839798
218 1 7.55818 9.23778 0
220 1 6.71838 9.23778 0.839798
257 1 6.71838 10.0776 0
259 1 7.55818 10.0776 0.839798
224 1 8.39798 9.23778 0.839798
261 1 8.39798 10.0776 0
222 1 9.23778 9.23778 0
228 1 10.0776 9.23778 0.839798
263 1 9.23778 10.0776 0.839798
265 1 10.0776 10.0776 0
226 1 10.9174 9.23778 0
232 1 11.7572 9.23778 0.839798
267 1 10.9174 10.0776 0.839798
269 1 11.7572 10.0776 0
230 1 12.597 9.23778 0
236 1 13.4368 9.23778 0.839798
271 1 12.597 10.0776 0.839798
273 1 13.4368 10.0776 0
234 1 14.2766 9.23778 0
240 1 15.1164 9.23778 0.839798
275 1 14.2766 10.0776 0.839798
277 1 15.1164 10.0776 0
238 1 15.9562 9.23778 0
279 1 15.9562 10.0776 0.839798
242 1 0.839798 10.9174 0
244 1 0 10.9174 0.839798
281 1 0 11.7572 0
283 1 0.839798 11.7572 0.839798
246 1 2.51939 10.9174 0
248 1 1.6796 10.9174 0.839798
285 1 1.6796 11.7572 0
287 1 2.51939 11.7572 0.839798
250 1 4.19899 10.9174 0
252 1 3.35919 10.9174 0.839798
289 1 3.35919 11.7572 0
291 1 4.19899 11.7572 0.839798
254 1 5.87859 10.9174 0
256 1 5.03879 10.9174 0.839798
293 1 5.03879 11.7572 0
295 1 5.87859 11.7572 0.839798
258 1 7.55818 10.9174 0
260 1 6.71838 10.9174 0.839798
297 1 6.71838 11.7572 0
299 1 7.55818 11.7572 0.839798
264 1 8.39798 10.9174 0.839798
301 1 8.39798 11.7572 0
262 1 9.23778 10.9174 0
268 1 10.0776 10.9174 0.839798
303 1 9.23778 11.7572 0.839798
305 1 10.0776 11.7572 0
266 1 10.9174 10.9174 0
272 1 11.7572 10.9174 0.839798
307 1 10.9174 11.7572 0.839798
309 1 11.7572 11.7572 0
270 1 12.597 10.9174 0
276 1 13.4368 10.9174 0.839798
311 1 12.597 11.7572 0.839798
313 1 13.4368 11.7572 0
274 1 14.2766 10.9174 0
280 1 15.1164 10.9174 0.839798
315 1 14.2766 11.7572 0.839798
317 1 15.1164 11.7572 0
278 1 15.9562 10.9174 0
319 1 15.9562 11.7572 0.839798
282 1 0.839798 12.597 0
284 1 0 12.597 0.839798
321 1 0 13.4368 0
323 1 0.839798 13.4368 0.839798
286 1 2.51939 12.597 0
288 1 1.6796 12.597 0.839798
325 1 1.6796 13.4368 0
327 1 2.51939 13.4368 0.839798
290 1 4.19899 12.597 0
292 1 3.35919 12.597 0.839798
329 1 3.35919 13.4368 0
331 1 4.19899 13.4368 0.839798
294 1 5.87859 12.597 0
296 1 5.03879 12.597 0.839798
333 1 5.03879 13.4368 0
335 1 5.87859 13.4368 0.839798
298 1 7.55818 12.597 0
300 1 6.71838 12.597 0.839798
337 1 6.71838 13.4368 0
339 1 7.55818 13.4368 0.839798
304 1 8.39798 12.597 0.839798
341 1 8.39798 13.4368 0
302 1 9.23778 12.597 0
308 1 10.0776 12.597 0.839798
343 1 9.23778 13.4368 0.839798
345 1 10.0776 13.4368 0
306 1 10.9174 12.597 0
312 1 11.7572 12.597 0.839798
347 1 10.9174 13.4368 0.839798
349 1 11.7572 13.4368 0
310 1 12.597 12.597 0
316 1 13.4368 12.597 0.839798
351 1 12.597 13.4368 0.839798
353 1 13.4368 13.4368 0
314 1 14.2766 12.597 0
320 1 15.1164 12.597 0.839798
355 1 14.2766 13.4368 0.839798
357 1 15.1164 13.4368 0
318 1 15.9562 12.597 0
359 1 15.9562 13.4368 0.839798
322 1 0.839798 14.2766 0
324 1 0 14.2766 0.839798
361 1 0 15.1164 0
363 1 0.839798 15.1164 0.839798
326 1 2.51939 14.2766 0
328 1 1.6796 14.2766 0.839798
365 1 1.6796 15.1164 0
367 1 2.51939 15.1164 0.839798
330 1 4.19899 14.2766 0
332 1 3.35919 14.2766 0.839798
369 1 3.35919 15.1164 0
371 1 4.19899 15.1164 0.839798
334 1 5.87859 14.2766 0
336 1 5.03879 14.2766 0.839798
373 1 5.03879 15.1164 0
375 1 5.87859 15.1164 0.839798
338 1 7.55818 14.2766 0
340 1 6.71838 14.2766 0.839798
377 1 6.71838 15.1164 0
379 1 7.55818 15.1164 0.839798
344 1 8.39798 14.2766 0.839798
381 1 8.39798 15.1164 0
342 1 9.23778 14.2766 0
348 1 10.0776 14.2766 0.839798
383 1 9.23778 15.1164 0.839798
385 1 10.0776 15.1164 0
346 1 10.9174 14.2766 0
352 1 11.7572 14.2766 0.839798
387 1 10.9174 15.1164 0.839798
389 1 11.7572 15.1164 0
350 1 12.597 14.2766 0
356 1 13.4368 14.2766 0.839798
391 1 12.597 15.1164 0.839798
393 1 13.4368 15.1164 0
354 1 14.2766 14.2766 0
360 1 15.1164 14.2766 0.839798
395 1 14.2766 15.1164 0.839798
397 1 15.1164 15.1164 0
358 1 15.9562 14.2766 0
399 1 15.9562 15.1164 0.839798
362 1 0.839798 15.9562 0
364 1 0 15.9562 0.839798
366 1 2.51939 15.9562 0
368 1 1.6796 15.9562 0.839798
370 1 4.19899 15.9562 0
372 1 3.35919 15.9562 0.839798
374 1 5.87859 15.9562 0
376 1 5.03879 15.9562 0.839798
378 1 7.55818 15.9562 0
380 1 6.71838 15.9562 0.839798
384 1 8.39798 15.9562 0.839798
382 1 9.23778 15.9562 0
388 1 10.0776 15.9562 0.839798
386 1 10.9174 15.9562 0
392 1 11.7572 15.9562 0.839798
390 1 12.597 15.9562 0
396 1 13.4368 15.9562 0.839798
394 1 14.2766 15.9562 0
400 1 15.1164 15.9562 0.839798
398 1 15.9562 15.9562 0
401 1 0 0 1.6796
402 1 0.839798 0.839798 1.6796
403 1 0.839798 0 2.51939
404 1 0 0.839798 2.51939
405 1 1.6796 0 1.6796
406 1 2.51939 0.839798 1.6796
407 1 2.51939 0 2.51939
408 1 1.6796 0.839798 2.51939
409 1 3.35919 0 1.6796
410 1 4.19899 0.839798 1.6796
411 1 4.19899 0 2.51939
412 1 3.35919 0.839798 2.51939
413 1 5.03879 0 1.6796
414 1 5.87859 0.839798 1.6796
415 1 5.87859 0 2.51939
416 1 5.03879 0.839798 2.51939
417 1 6.71838 0 1.6796
418 1 7.55818 0.839798 1.6796
419 1 7.55818 0 2.51939
420 1 6.71838 0.839798 2.51939
421 1 8.39798 0 1.6796
424 1 8.39798 0.839798 2.51939
422 1 9.23778 0.839798 1.6796
423 1 9.23778 0 2.51939
425 1 10.0776 0 1.6796
428 1 10.0776 0.839798 2.51939
426 1 10.9174 0.839798 1.6796
427 1 10.9174 0 2.51939
429 1 11.7572 0 1.6796
432 1 11.7572 0.839798 2.51939
430 1 12.597 0.839798 1.6796
431 1 12.597 0 2.51939
433 1 13.4368 0 1.6796
436 1 13.4368 0.839798 2.51939
434 1 14.2766 0.839798 1.6796
435 1 14.2766 0 2.51939
437 1 15.1164 0 1.6796
440 1 15.1164 0.839798 2.51939
438 1 15.9562 0.839798 1.6796
439 1 15.9562 0 2.51939
441 1 0 1.6796 1.6796
442 1 0.839798 2.51939 1.6796
443 1 0.839798 1.6796 2.51939
444 1 0 2.51939 2.51939
445 1 1.6796 1.6796 1.6796
446 1 2.51939 2.51939 1.6796
447 1 2.51939 1.6796 2.51939
448 1 1.6796 2.51939 2.51939
449 1 3.35919 1.6796 1.6796
450 1 4.19899 2.51939 1.6796
451 1 4.19899 1.6796 2.51939
452 1 3.35919 2.51939 2.51939
453 1 5.03879 1.6796 1.6796
454 1 5.87859 2.51939 1.6796
455 1 5.87859 1.6796 2.51939
456 1 5.03879 2.51939 2.51939
457 1 6.71838 1.6796 1.6796
458 1 7.55818 2.51939 1.6796
459 1 7.55818 1.6796 2.51939
460 1 6.71838 2.51939 2.51939
461 1 8.39798 1.6796 1.6796
464 1 8.39798 2.51939 2.51939
462 1 9.23778 2.51939 1.6796
463 1 9.23778 1.6796 2.51939
465 1 10.0776 1.6796 1.6796
468 1 10.0776 2.51939 2.51939
466 1 10.9174 2.51939 1.6796
467 1 10.9174 1.6796 2.51939
469 1 11.7572 1.6796 1.6796
472 1 11.7572 2.51939 2.51939
470 1 12.597 2.51939 1.6796
471 1 12.597 1.6796 2.51939
473 1 13.4368 1.6796 1.6796
476 1 13.4368 2.51939 2.51939
474 1 14.2766 2.51939 1.6796
475 1 14.2766 1.6796 2.51939
477 1 15.1164 1.6796 1.6796
480 1 15.1164 2.51939 2.51939
478 1 15.9562 2.51939 1.6796
479 1 15.9562 1.6796 2.51939
481 1 0 3.35919 1.6796
482 1 0.839798 4.19899 1.6796
483 1 0.839798 3.35919 2.51939
484 1 0 4.19899 2.51939
485 1 1.6796 3.35919 1.6796
486 1 2.51939 4.19899 1.6796
487 1 2.51939 3.35919 2.51939
488 1 1.6796 4.19899 2.51939
489 1 3.35919 3.35919 1.6796
490 1 4.19899 4.19899 1.6796
491 1 4.19899 3.35919 2.51939
492 1 3.35919 4.19899 2.51939
493 1 5.03879 3.35919 1.6796
494 1 5.87859 4.19899 1.6796
495 1 5.87859 3.35919 2.51939
496 1 5.03879 4.19899 2.51939
497 1 6.71838 3.35919 1.6796
498 1 7.55818 4.19899 1.6796
499 1 7.55818 3.35919 2.51939
500 1 6.71838 4.19899 2.51939
501 1 8.39798 3.35919 1.6796
504 1 8.39798 4.19899 2.51939
502 1 9.23778 4.19899 1.6796
503 1 9.23778 3.35919 2.51939
505 1 10.0776 3.35919 1.6796
508 1 10.0776 4.19899 2.51939
506 1 10.9174 4.19899 1.6796
507 1 10.9174 3.35919 2.51939
509 1 11.7572 3.35919 1.6796
512 1 11.7572 4.19899 2.51939
510 1 12.597 4.19899 1.6796
511 1 12.597 3.35919 2.51939
513 1 13.4368 3.35919 1.6796
516 1 13.4368 4.19899 2.51939
514 1 14.2766 4.19899 1.6796
515 1 14.2766 3.35919 2.51939
517 1 15.1164 3.35919 1.6796
520 1 15.1164 4.19899 2.51939
518 1 15.9562 4.19899 1.6796
519 1 15.9562 3.35919 2.51939
521 1 0 5.03879 1.6796
522 1 0.839798 5.87859 1.6796
523 1 0.839798 5.03879 2.51939
524 1 0 5.87859 2.51939
525 1 1.6796 5.03879 1.6796
526 1 2.51939 5.87859 1.6796
527 1 2.51939 5.03879 2.51939
528 1 1.6796 5.87859 2.51939
529 1 3.35919 5.03879 1.6796
530 1 4.19899 5.87859 1.6796
531 1 4.19899 5.03879 2.51939
532 1 3.35919 5.87859 2.51939
533 1 5.03879 5.03879 1.6796
534 1 5.87859 5.87859 1.6796
535 1 5.87859 5.03879 2.51939
536 1 5.03879 5.87859 2.51939
537 1 6.71838 5.03879 1.6796
538 1 7.55818 5.87859 1.6796
539 1 7.55818 5.03879 2.51939
540 1 6.71838 5.87859 2.51939
541 1 8.39798 5.03879 1.6796
544 1 8.39798 5.87859 2.51939
542 1 9.23778 5.87859 1.6796
543 1 9.23778 5.03879 2.51939
545 1 10.0776 5.03879 1.6796
548 1 10.0776 5.87859 2.51939
546 1 10.9174 5.87859 1.6796
547 1 10.9174 5.03879 2.51939
549 1 11.7572 5.03879 1.6796
552 1 11.7572 5.87859 2.51939
550 1 12.597 5.87859 1.6796
551 1 12.597 5.03879 2.51939
553 1 13.4368 5.03879 1.6796
556 1 13.4368 5.87859 2.51939
554 1 14.2766 5.87859 1.6796
555 1 14.2766 5.03879 2.51939
557 1 15.1164 5.03879 1.6796
560 1 15.1164 5.87859 2.51939
558 1 15.9562 5.87859 1.6796
559 1 15.9562 5.03879 2.51939
561 1 0 6.71838 1.6796
562 1 0.839798 7.55818 1.6796
563 1 0.839798 6.71838 2.51939
564 1 0 7.55818 2.51939
565 1 1.6796 6.71838 1.6796
566 1 2.51939 7.55818 1.6796
567 1 2.51939 6.71838 2.51939
568 1 1.6796 7.55818 2.51939
569 1 3.35919 6.71838 1.6796
570 1 4.19899 7.55818 1.6796
571 1 4.19899 6.71838 2.51939
572 1 3.35919 7.55818 2.51939
573 1 5.03879 6.71838 1.6796
574 1 5.87859 7.55818 1.6796
575 1 5.87859 6.71838 2.51939
576 1 5.03879 7.55818 2.51939
577 1 6.71838 6.71838 1.6796
578 1 7.55818 7.55818 1.6796
579 1 7.55818 6.71838 2.51939
580 1 6.71838 7.55818 2.51939
581 1 8.39798 6.71838 1.6796
584 1 8.39798 7.55818 2.51939
582 1 9.23778 7.55818 1.6796
583 1 9.23778 6.71838 2.51939
585 1 10.0776 6.71838 1.6796
588 1 10.0776 7.55818 2.51939
586 1 10.9174 7.55818 1.6796
587 1 10.9174 6.71838 2.51939
589 1 11.7572 6.71838 1.6796
592 1 11.7572 7.55818 2.51939
590 1 12.597 7.55818 1.6796
591 1 12.597 6.71838 2.51939
593 1 13.4368 6.71838 1.6796
596 1 13.4368 7.55818 2.51939
594 1 14.2766 7.55818 1.6796
595 1 14.2766 6.71838 2.51939
597 1 15.1164 6.71838 1.6796
600 1 15.1164 7.55818 2.51939
598 1 15.9562 7.55818 1.6796
599 1 15.9562 6.71838 2.51939
601 1 0 8.39798 1.6796
603 1 0.839798 8.39798 2.51939
605 1 1.6796 8.39798 1.6796
607 1 2.51939 8.39798 2.51939
609 1 3.35919 8.39798 1.6796
611 1 4.19899 8.39798 2.51939
613 1 5.03879 8.39798 1.6796
615 1 5.87859 8.39798 2.51939
617 1 6.71838 8.39798 1.6796
619 1 7.55818 8.39798 2.51939
621 1 8.39798 8.39798 1.6796
623 1 9.23778 8.39798 2.51939
625 1 10.0776 8.39798 1.6796
627 1 10.9174 8.39798 2.51939
629 1 11.7572 8.39798 1.6796
631 1 12.597 8.39798 2.51939
633 1 13.4368 8.39798 1.6796
635 1 14.2766 8.39798 2.51939
637 1 15.1164 8.39798 1.6796
639 1 15.9562 8.39798 2.51939
602 1 0.839798 9.23778 1.6796
604 1 0 9.23778 2.51939
641 1 0 10.0776 1.6796
643 1 0.839798 10.0776 2.51939
606 1 2.51939 9.23778 1.6796
608 1 1.6796 9.23778 2.51939
645 1 1.6796 10.0776 1.6796
647 1 2.51939 10.0776 2.51939
610 1 4.19899 9.23778 1.6796
612 1 3.35919 9.23778 2.51939
649 1 3.35919 10.0776 1.6796
651 1 4.19899 10.0776 2.51939
614 1 5.87859 9.23778 1.6796
616 1 5.03879 9.23778 2.51939
653 1 5.03879 10.0776 1.6796
655 1 5.87859 10.0776 2.51939
618 1 7.55818 9.23778 1.6796
620 1 6.71838 9.23778 2.51939
657 1 6.71838 10.0776 1.6796
659 1 7.55818 10.0776 2.51939
624 1 8.39798 9.23778 2.51939
661 1 8.39798 10.0776 1.6796
622 1 9.23778 9.23778 1.6796
628 1 10.0776 9.23778 2.51939
663 1 9.23778 10.0776 2.51939
665 1 10.0776 10.0776 1.6796
626 1 10.9174 9.23778 1.6796
632 1 11.7572 9.23778 2.51939
667 1 10.9174 10.0776 2.51939
669 1 11.7572 10.0776 1.6796
630 1 12.597 9.23778 1.6796
636 1 13.4368 9.23778 2.51939
671 1 12.597 10.0776 2.51939
673 1 13.4368 10.0776 1.6796
634 1 14.2766 9.23778 1.6796
640 1 15.1164 9.23778 2.51939
675 1 14.2766 10.0776 2.51939
677 1 15.1164 10.0776 1.6796
638 1 15.9562 9.23778 1.6796
679 1 15.9562 10.0776 2.51939
642 1 0.839798 10.9174 1.6796
644 1 0 10.9174 2.51939
681 1 0 11.7572 1.6796
683 1 0.839798 11.7572 2.51939
646 1 2.51939 10.9174 1.6796
648 1 1.6796 10.9174 2.51939
685 1 1.6796 11.7572 1.6796
687 1 2.51939 11.7572 2.51939
650 1 4.19899 10.9174 1.6796
652 1 3.35919 10.9174 2.51939
689 1 3.35919 11.7572 1.6796
691 1 4.19899 11.7572 2.51939
654 1 5.87859 10.9174 1.6796
656 1 5.03879 10.9174 2.51939
693 1 5.03879 11.7572 1.6796
695 1 5.87859 11.7572 2.51939
658 1 7.55818 10.9174 1.6796
660 1 6.71838 10.9174 2.51939
697 1 6.71838 11.7572 1.6796
699 1 7.55818 11.7572 2.51939
664 1 8.39798 10.9174 2.51939
701 1 8.39798 11.7572 1.6796
662 1 9.23778 10.9174 1.6796
668 1 10.0776 10.9174 2.51939
703 1 9.23778 11.7572 2.51939
705 1 10.0776 11.7572 1.6796
666 1 10.9174 10.9174 1.6796
672 1 11.7572 10.9174 2.51939
707 1 10.9174 11.7572 2.51939
709 1 11.7572 11.7572 1.6796
670 1 12.597 10.9174 1.6796
676 1 13.4368 10.9174 2.51939
711 1 12.597 11.7572 2.51939
713 1 13.4368 11.7572 1.6796
674 1 14.2766 10.9174 1.6796
680 1 15.1164 10.9174 2.51939
715 1 14.2766 11.7572 2.51939
717 1 15.1164 11.7572 1.6796
678 1 15.9562 10.9174 1.6796
719 1 15.9562 11.7572 2.51939
682 1 0.839798 12.597 1.6796
684 1 0 12.597 2.51939
721 1 0 13.4368 1.6796
723 1 0.839798 13.4368 2.51939
686 1 2.51939 12.597 1.6796
688 1 1.6796 12.597 2.51939
725 1 1.6796 13.4368 1.6796
727 1 2.51939 13.4368 2.51939
690 1 4.19899 12.597 1.6796
692 1 3.35919 12.597 2.51939
729 1 3.35919 13.4368 1.6796
731 1 4.19899 13.4368 2.51939
694 1 5.87859 12.597 1.6796
696 1 5.03879 12.597 2.51939
733 1 5.03879 13.4368 1.6796
735 1 5.87859 13.4368 2.51939
698 1 7.55818 12.597 1.6796
700 1 6.71838 12.597 2.51939
737 1 6.71838 13.4368 1.6796
739 1 7.55818 13.4368 2.51939
704 1 8.39798 12.597 2.51939
741 1 8.39798 13.4368 1.6796
702 1 9.23778 12.597 1.6796
708 1 10.0776 12.597 2.51939
743 1 9.23778 13.4368 2.51939
745 1 10.0776 13.4368 1.6796
706 1 10.9174 12.597 1.6796
712 1 11.7572 12.597 2.51939
747 1 10.9174 13.4368 2.51939
749 1 11.7572 13.4368 1.6796
710 1 12.597 12.597 1.6796
716 1 13.4368 12.597 2.51939
751 1 12.597 13.4368 2.51939
753 1 13.4368 13.4368 1.6796
714 1 14.2766 12.597 1.6796
720 1 15.1164 12.597 2.51939
755 1 14.2766 13.4368 2.51939
757 1 15.1164 13.4368 1.6796
718 1 15.9562 12.597 1.6796
759 1 15.9562 13.4368 2.51939
722 1 0.839798 14.2766 1.6796
724 1 0 14.2766 2.51939
761 1 0 15.1164 1.6796
763 1 0.839798 15.1164 2.51939
726 1 2.51939 14.2766 1.6796
728 1 1.6796 14.2766 2.51939
765 1 1.6796 15.1164 1.6796
767 1 2.51939 15.1164 2.51939
730 1 4.19899 14.2766 1.6796
732 1 3.35919 14.2766 2.51939
769 1 3.35919 15.1164 1.6796
771 1 4.19899 15.1164 2.51939
734 1 5.87859 14.2766 1.6796
736 1 5.03879 14.2766 2.51939
773 1 5.03879 15.1164 1.6796
775 1 5.87859 15.1164 2.51939
738 1 7.55818 14.2766 1.6796
740 1 6.71838 14.2766 2.51939
777 1 6.71838 15.1164 1.6796
779 1 7.55818 15.1164 2.51939
744 1 8.39798 14.2766 2.51939
781 1 8.39798 15.1164 1.6796
742 1 9.23778 14.2766 1.6796
748 1 10.0776 14.2766 2.51939
783 1 9.23778 15.1164 2.51939
785 1 10.0776 15.1164 1.6796
746 1 10.9174 14.2766 1.6796
752 1 11.7572 14.2766 2.51939
787 1 10.9174 15.1164 2.51939
789 1 11.7572 15.1164 1.6796
750 1 12.597 14.2766 1.6796
756 1 13.4368 14.2766 2.51939
791 1 12.597 15.1164 2.51939
793 1 13.4368 15.1164 1.6796
754 1 14.2766 14.2766 1.6796
760 1 15.1164 14.2766 2.51939
795 1 14.2766 15.1164 2.51939
797 1 15.1164 15.1164 1.6796
758 1 15.9562 14.2766 1.6796
799 1 15.9562 15.1164 2.51939
762 1 0.839798 15.9562 1.6796
764 1 0 15.9562 2.51939
766 1 2.51939 15.9562 1.6796
768 1 1.6796 15.9562 2.51939
770 1 4.19899 15.9562 1.6796
772 1 3.35919 15.9562 2.51939
774 1 5.87859 15.9562 1.6796
776 1 5.03879 15.9562 2.51939
778 1 7.55818 15.9562 1.6796
780 1 6.71838 15.9562 2.51939
784 1 8.39798 15.9562 2.51939
782 1 9.23778 15.9562 1.6796
788 1 10.0776 15.9562 2.51939
786 1 10.9174 15.9562 1.6796
792 1 11.7572 15.9562 2.51939
790 1 12.597 15.9562 1.6796
796 1 13.4368 15.9562 2.51939
794 1 14.2766 15.9562 1.6796
800 1 15.1164 15.9562 2.51939
798 1 15.9562 15.9562 1.6796
801 1 0 0 3.35919
802 1 0.839798 0.839798 3.35919
803 1 0.839798 0 4.19899
804 1 0 0.839798 4.19899
805 1 1.6796 0 3.35919
806 1 2.51939 0.839798 3.35919
807 1 2.51939 0 4.19899
808 1 1.6796 0.839798 4.19899
809 1 3.35919 0 3.35919
810 1 4.19899 0.839798 3.35919
811 1 4.19899 0 4.19899
812 1 3.35919 0.839798 4.19899
813 1 5.03879 0 3.35919
814 1 5.87859 0.839798 3.35919
815 1 5.87859 0 4.19899
816 1 5.03879 0.839798 4.19899
817 1 6.71838 0 3.35919
818 1 7.55818 0.839798 3.35919
819 1 7.55818 0 4.19899
820 1 6.71838 0.839798 4.19899
821 1 8.39798 0 3.35919
824 1 8.39798 0.839798 4.19899
822 1 9.23778 0.839798 3.35919
823 1 9.23778 0 4.19899
825 1 10.0776 0 3.35919
828 1 10.0776 0.839798 4.19899
826 1 10.9174 0.839798 3.35919
827 1 10.9174 0 4.19899
829 1 11.7572 0 3.35919
832 1 11.7572 0.839798 4.19899
830 1 12.597 0.839798 3.35919
831 1 12.597 0 4.19899
833 1 13.4368 0 3.35919
836 1 13.4368 0.839798 4.19899
834 1 14.2766 0.839798 3.35919
835 1 14.2766 0 4.19899
837 1 15.1164 0 3.35919
840 1 15.1164 0.839798 4.19899
838 1 15.9562 0.839798 3.35919
839 1 15.9562 0 4.19899
841 1 0 1.6796 3.35919
842 1 0.839798 2.51939 3.35919
843 1 0.839798 1.6796 4.19899
844 1 0 2.51939 4.19899
845 1 1.6796 1.6796 3.35919
846 1 2.51939 2.51939 3.35919
847 1 2.51939 1.6796 4.19899
848 1 1.6796 2.51939 4.19899
849 1 3.35919 1.6796 3.35919
850 1 4.19899 2.51939 3.35919
851 1 4.19899 1.6796 4.19899
852 1 3.35919 2.51939 4.19899
853 1 5.03879 1.6796 3.35919
854 1 5.87859 2.51939 3.35919
855 1 5.87859 1.6796 4.19899
856 1 5.03879 2.51939 4.19899
857 1 6.71838 1.6796 3.35919
858 1 7.55818 2.51939 3.35919
859 1 7.55818 1.6796 4.19899
860 1 6.71838 2.51939 4.19899
861 1 8.39798 1.6796 3.35919
864 1 8.39798 2.51939 4.19899
862 1 9.23778 2.51939 3.35919
863 1 9.23778 1.6796 4.19899
865 1 10.0776 1.6796 3.35919
868 1 10.0776 2.51939 4.19899
866 1 10.9174 2.51939 3.35919
867 1 10.9174 1.6796 4.19899
869 1 11.7572 1.6796 3.35919
872 1 11.7572 2.51939 4.19899
870 1 12.597 2.51939 3.35919
871 1 12.597 1.6796 4.19899
873 1 13.4368 1.6796 3.35919
876 1 13.4368 2.51939 4.19899
874 1 14.2766 2.51939 3.35919
875 1 14.2766 1.6796 4.19899
877 1 15.1164 1.6796 3.35919
880 1 15.1164 2.51939 4.19899
878 1 15.9562 2.51939 3.35919
879 1 15.9562 1.6796 4.19899
881 1 0 3.35919 3.35919
882 1 0.839798 4.19899 3.35919
883 1 0.839798 3.35919 4.19899
884 1 0 4.19899 4.19899
885 1 1.6796 3.35919 3.35919
886 1 2.51939 4.19899 3.35919
887 1 2.51939 3.35919 4.19899
888 1 1.6796 4.19899 4.19899
889 1 3.35919 3.35919 3.35919
890 1 4.19899 4.19899 3.35919
891 1 4.19899 3.35919 4.19899
892 1 3.35919 4.19899 4.19899
893 1 5.03879 3.35919 3.35919
894 1 5.87859 4.19899 3.35919
895 1 5.87859 3.35919 4.19899
896 1 5.03879 4.19899 4.19899
897 1 6.71838 3.35919 3.35919
898 1 7.55818 4.19899 3.35919
899 1 7.55818 3.35919 4.19899
900 1 6.71838 4.19899 4.19899
901 1 8.39798 3.35919 3.35919
904 1 8.39798 4.19899 4.19899
902 1 9.23778 4.19899 3.35919
903 1 9.23778 3.35919 4.19899
905 1 10.0776 3.35919 3.35919
908 1 10.0776 4.19899 4.19899
906 1 10.9174 4.19899 3.35919
907 1 10.9174 3.35919 4.19899
909 1 11.7572 3.35919 3.35919
912 1 11.7572 4.19899 4.19899
910 1 12.597 4.19899 3.35919
911 1 12.597 3.35919 4.19899
913 1 13.4368 3.35919 3.35919
916 1 13.4368 4.19899 4.19899
914 1 14.2766 4.19899 3.35919
915 1 14.2766 3.35919 4.19899
917 1 15.1164 3.35919 3.35919
920 1 15.1164 4.19899 4.19899
918 1 15.9562 4.19899 3.35919
919 1 15.9562 3.35919 4.19899
921 1 0 5.03879 3.35919
922 1 0.839798 5.87859 3.35919
923 1 0.839798 5.03879 4.19899
924 1 0 5.87859 4.19899
925 1 1.6796 5.03879 3.35919
926 1 2.51939 5.87859 3.35919
927 1 2.51939 5.03879 4.19899
928 1 1.6796 5.87859 4.19899
929 1 3.35919 5.03879 3.35919
930 1 4.19899 5.87859 3.35919
931 1 4.19899 5.03879 4.19899
932 1 3.35919 5.87859 4.19899
933 1 5.03879 5.03879 3.35919
934 1 5.87859 5.87859 3.35919
935 1 5.87859 5.03879 4.19899
936 1 5.03879 5.87859 4.19899
937 1 6.71838 5.03879 3.35919
938 1 7.55818 5.87859 3.35919
939 1 7.55818 5.03879 4.19899
940 1 6.71838 5.87859 4.19899
941 1 8.39798 5.03879 3.35919
944 1 8.39798 5.87859 4.19899
942 1 9.23778 5.87859 3.35919
943 1 9.23778 5.03879 4.19899
945 1 10.0776 5.03879 3.35919
948 1 10.0776 5.87859 4.19899
946 1 10.9174 5.87859 3.35919
947 1 10.9174 5.03879 4.19899
949 1 11.7572 5.03879 3.35919
952 1 11.7572 5.87859 4.19899
950 1 12.597 5.87859 3.35919
951 1 12.597 5.03879 4.19899
953 1 13.4368 5.03879 3.35919
956 1 13.4368 5.87859 4.19899
954 1 14.2766 5.87859 3.35919
955 1 14.2766 5.03879 4.19899
957 1 15.1164 5.03879 3.35919
960 1 15.1164 5.87859 4.19899
958 1 15.9562 5.87859 3.35919
959 1 15.9562 5.03879 4.19899
961 1 0 6.71838 3.35919
962 1 0.839798 7.55818 3.35919
963 1 0.839798 6.71838 4.19899
964 1 0 7.55818 4.19899
965 1 1.6796 6.71838 3.35919
966 1 2.51939 7.55818 3.35919
967 1 2.51939 6.71838 4.19899
968 1 1.6796 7.55818 4.19899
969 1 3.35919 6.71838 3.35919
970 1 4.19899 7.55818 3.35919
971 1 4.19899 6.71838 4.19899
972 1 3.35919 7.55818 4.19899
973 1 5.03879 6.71838 3.35919
974 1 5.87859 7.55818 3.35919
975 1 5.87859 6.71838 4.19899
976 1 5.03879 7.55818 4.19899
977 1 6.71838 6.71838 3.35919
978 1 7.55818 7.55818 3.35919
979 1 7.55818 6.71838 4.19899
980 1 6.71838 7.55818 4.19899
981 1 8.39798 6.71838 3.35919
984 1 8.39798 7.55818 4.19899
982 1 9.23778 7.55818 3.35919
983 1 9.23778 6.71838 4.19899
985 1 10.0776 6.71838 3.35919
988 1 10.0776 7.55818 4.19899
986 1 10.9174 7.55818 3.35919
987 1 10.9174 6.71838 4.19899
989 1 11.7572 6.71838 3.35919
992 1 11.7572 7.55818 4.19899
990 1 12.597 7.55818 3.35919
991 1 12.597 6.71838 4.19899
993 1 13.4368 6.71838 3.35919
996 1 13.4368 7.55818 4.19899
994 1 14.2766 7.55818 3.35919
995 1 14.2766 6.71838 4.19899
997 1 15.1164 6.71838 3.35919
1000 1 15.1164 7.55818 4.19899
998 1 15.9562 7.55818 3.35919
999 1 15.9562 6.71838 4.19899
1001 1 0 8.39798 3.35919
1003 1 0.839798 8.39798 4.19899
1005 1 1.6796 8.39798 3.35919
1007 1 2.51939 8.39798 4.19899
1009 1 3.35919 8.39798 3.35919
1011 1 4.19899 8.39798 4.19899
1013 1 5.03879 8.39798 3.35919
1015 1 5.87859 8.39798 4.19899
1017 1 6.71838 8.39798 3.35919
1019 1 7.55818 8.39798 4.19899
1021 1 8.39798 8.39798 3.35919
1023 1 9.23778 8.39798 4.19899
1025 1 10.0776 8.39798 3.35919
1027 1 10.9174 8.39798 4.19899
1029 1 11.7572 8.39798 3.35919
1031 1 12.597 8.39798 4.19899
1033 1 13.4368 8.39798 3.35919
1035 1 14.2766 8.39798 4.19899
1037 1 15.1164 8.39798 3.35919
1039 1 15.9562 8.39798 4.19899
1002 1 0.839798 9.23778 3.35919
1004 1 0 9.23778 4.19899
1041 1 0 10.0776 3.35919
1043 1 0.839798 10.0776 4.19899
1006 1 2.51939 9.23778 3.35919
1008 1 1.6796 9.23778 4.19899
1045 1 1.6796 10.0776 3.35919
1047 1 2.51939 10.0776 4.19899
1010 1 4.19899 9.23778 3.35919
1012 1 3.35919 9.23778 4.19899
1049 1 3.35919 10.0776 3.35919
1051 1 4.19899 10.0776 4.19899
1014 1 5.87859 9.23778 3.35919
1016 1 5.03879 9.23778 4.19899
1053 1 5.03879 10.0776 3.35919
1055 1 5.87859 10.0776 4.19899
1018 1 7.55818 9.23778 3.35919
1020 1 6.71838 9.23778 4.19899
1057 1 6.71838 10.0776 3.35919
1059 1 7.55818 10.0776 4.19899
1024 1 8.39798 9.23778 4.19899
1061 1 8.39798 10.0776 3.35919
1022 1 9.23778 9.23778 3.35919
1028 1 10.0776 9.23778 4.19899
1063 1 9.23778 10.0776 4.19899
1065 1 10.0776 10.0776 3.35919
1026 1 10.9174 9.23778 3.35919
1032 1 11.7572 9.23778 4.19899
1067 1 10.9174 10.0776 4.19899
1069 1 11.7572 10.0776 3.35919
1030 1 12.597 9.23778 3.35919
1036 1 13.4368 9.23778 4.19899
1071 1 12.597 10.0776 4.19899
1073 1 13.4368 10.0776 3.35919
1034 1 14.2766 9.23778 3.35919
1040 1 15.1164 9.23778 4.19899
1075 1 14.2766 10.0776 4.19899
1077 1 15.1164 10.0776 3.35919
1038 1 15.9562 9.23778 3.35919